ITEM: TIMESTEP
27000
ITEM: NUMBER OF ENTRIES
116
ITEM: BOX BOUNDS pp pp pp
-2.1034440479022237e+01 2.1034440479022237e+01
-1.1245775088204779e+01 1.1245775088204779e+01
-1.1245775088204779e+01 1.1245775088204779e+01
ITEM: ENTRIES c_dphi
166.508 
-75.2 
40.8322 
-112.263 
123.361 
9.76393 
-113.493 
132.911 
10.8834 
-1.76803 
-115.365 
122.608 
173.053 
51.0343 
-70.4179 
-73.4655 
172.118 
46.5675 
-67.8492 
167.807 
53.3906 
-22.2615 
91.4749 
-92.4552 
151.801 
37.3781 
104.451 
-16.7335 
-133.131 
107.842 
110.062 
-11.6474 
-130.49 
-134.275 
104.015 
-14.8278 
-11.6053 
-133.315 
-174.596 
70.9594 
-52.8339 
-171.774 
64.4329 
-57.3292 
-50.8071 
-174.6 
63.6375 
170.97 
-76.3154 
54.8859 
-175.824 
64.9625 
-51.1191 
105.995 
-129.001 
-13.7038 
-152.706 
88.2214 
-26.6288 
-155.685 
89.4651 
-36.6118 
-35.3262 
-150.176 
83.7467 
139.789 
-100.837 
13.1135 
-157.494 
83.659 
-37.5889 
-155.26 
-33.7843 
85.8012 
-142.99 
91.5183 
-28.4907 
-141.938 
98.0532 
-16.4462 
-18.8673 
-138.876 
106.624 
104.924 
-20.0436 
-138.042 
93.446 
-42.6297 
-153.811 
155.382 
34.7734 
-85.5222 
169.198 
48.9024 
-70.1937 
-77.8577 
161.847 
42.7506 
169.428 
-68.3662 
50.4023 
178.535 
53.064 
-60.441 
142.253 
-96.4501 
22.5215 
46.7709 
-76.2944 
166.103 
45.1051 
-72.4977 
168.17 
162.666 
45.0632 
-74.2687 
ITEM: TIMESTEP
28000
ITEM: NUMBER OF ENTRIES
116
ITEM: BOX BOUNDS pp pp pp
-2.1034440479022237e+01 2.1034440479022237e+01
-1.1245775088204779e+01 1.1245775088204779e+01
-1.1245775088204779e+01 1.1245775088204779e+01
ITEM: ENTRIES c_dphi
-94.1484 
145.067 
22.5072 
-179.088 
64.3277 
-55.2819 
-107.018 
-100.57 
140.08 
10.9216 
13.7546 
-105.596 
125.246 
141.491 
22.1404 
-143.345 
87.1806 
-30.8564 
-151.177 
90.7858 
-21.7029 
-32.1028 
-150.14 
97.3715 
-122.209 
3.49196 
124.859 
-118.637 
122.556 
7.36583 
-166.601 
-55.2754 
63.3365 
117.917 
-119.699 
-3.91153 
165.102 
45.5337 
-74.3604 
169.09 
49.1956 
-71.3422 
-79.0795 
161.026 
40.4886 
-169.853 
65.9239 
-53.1099 
109.701 
-12.2667 
-126.528 
111.504 
-9.03683 
-131.005 
-43.4321 
72.9807 
-142.365 
94.5154 
-22.6353 
-145.371 
97.4782 
-22.2514 
-26.1852 
-143.336 
96.9345 
176.433 
-63.034 
58.485 
-167.162 
69.4736 
-45.9271 
164.627 
-75.364 
44.869 
-147.103 
93.7581 
-27.6481 
-146.466 
92.1279 
-27.3267 
-29.5259 
-150.932 
89.6134 
-143.952 
96.7336 
-18.2914 
163.742 
44.5507 
-72.7392 
147.326 
26.6541 
-90.6222 
140.654 
23.3779 
-98.6736 
-95.6199 
147.104 
25.0524 
148.023 
-89.6532 
28.7684 
-158.07 
77.6785 
-41.4152 
-77.0497 
25.0899 
152.853 
-169.879 
76.8389 
-37.3577 
-156.194 
89.6092 
-42.9126 
-39.6739 
-153.871 
73.6077 
ITEM: TIMESTEP
29000
ITEM: NUMBER OF ENTRIES
116
ITEM: BOX BOUNDS pp pp pp
-2.1034440479022237e+01 2.1034440479022237e+01
-1.1245775088204779e+01 1.1245775088204779e+01
-1.1245775088204779e+01 1.1245775088204779e+01
ITEM: ENTRIES c_dphi
92.8479 
-16.4621 
-137.336 
-175.672 
178.551 
60.2656 
-54.6021 
-67.8985 
173.816 
58.9488 
57.4803 
-60.8048 
161.351 
44.1334 
-74.6351 
158.62 
39.8512 
-84.1626 
-85.8889 
155.343 
31.3288 
150.636 
-91.9283 
30.65 
179.671 
58.5399 
-55.3721 
-113.475 
125.382 
12.8114 
-178.343 
-57.8799 
62.4672 
-158.902 
-27.0497 
88.2831 
-174.793 
51.1395 
-64.0732 
172.26 
57.0475 
-53.672 
-77.3963 
167.391 
56.6715 
-158.26 
87.1014 
-33.2021 
62.4766 
-53.9082 
177.531 
61.1464 
-66.6418 
176.973 
-73.3327 
46.4452 
-148.295 
-29.8917 
90.334 
-122.422 
116.879 
-0.982478 
-122.475 
119.664 
-1.77549 
-6.38102 
-124.242 
114.318 
-161.89 
80.1515 
-41.8894 
163.645 
41.846 
-73.9068 
169.516 
53.7629 
-68.6854 
-78.7078 
165.539 
43.0911 
-164.421 
-41.436 
73.0372 
168.485 
44.0728 
-75.0908 
-174.966 
73.8295 
-52.9436 
-167.516 
69.3119 
-49.1431 
-179.499 
62.0458 
-56.327 
-58.1886 
-176.644 
64.9836 
-119.399 
3.36854 
121.833 
-138.857 
106.945 
-9.72059 
-69.5385 
46.2916 
161.184 
-165.646 
79.6036 
-32.7271 
-162.077 
85.592 
-47.3265 
-49.7781 
-162.109 
64.9728 
ITEM: TIMESTEP
30000
ITEM: NUMBER OF ENTRIES
116
ITEM: BOX BOUNDS pp pp pp
-2.1034440479022237e+01 2.1034440479022237e+01
-1.1245775088204779e+01 1.1245775088204779e+01
-1.1245775088204779e+01 1.1245775088204779e+01
ITEM: ENTRIES c_dphi
-56.4428 
-179.666 
63.8193 
177.999 
62.9161 
-53.0973 
-178.516 
65.4704 
-63.4331 
-64.4656 
179.521 
50.6174 
-165.112 
-53.5156 
72.6401 
-177.435 
67.0469 
-52.3965 
-138.494 
-145.633 
93.3698 
-23.4786 
-22.8479 
-143.846 
99.306 
99.3523 
-21.6454 
151.661 
37.1989 
-81.6779 
-159.32 
-38.6112 
80.4906 
-90.7062 
30.6431 
148.491 
-165.166 
72.7536 
-41.7189 
-169.292 
76.2353 
-47.2118 
-50.4233 
-164.896 
71.6571 
-154.873 
74.1058 
-34.1596 
54.0413 
-62.2454 
-177.573 
66.1401 
-67.9617 
175.752 
-96.5936 
24.9636 
-176.067 
-55.3685 
63.77 
-120.965 
115.899 
-3.10745 
-122.083 
118.91 
1.05225 
-3.74576 
-122.753 
119.39 
-171.207 
68.7516 
-50.6139 
-169.025 
67.8098 
-49.8767 
-173.784 
68.5291 
-50.6196 
-49.7638 
-167.45 
73.4011 
177.421 
-64.932 
56.4966 
-157.723 
83.1551 
-36.6538 
-162.211 
71.7131 
-46.7214 
-175.132 
63.9731 
-53.7939 
-162.905 
79.3275 
-42.0103 
-52.0725 
-169.84 
68.8227 
-166.263 
-45.8891 
70.2706 
160.722 
39.0334 
-82.7141 
32.1906 
149.424 
-95.5356 
168.345 
56.7878 
-67.7264 
175.943 
51.4288 
-72.5002 
-66.2355 
169.25 
45.3213 
ITEM: TIMESTEP
31000
ITEM: NUMBER OF ENTRIES
116
ITEM: BOX BOUNDS pp pp pp
-2.1034440479022237e+01 2.1034440479022237e+01
-1.1245775088204779e+01 1.1245775088204779e+01
-1.1245775088204779e+01 1.1245775088204779e+01
ITEM: ENTRIES c_dphi
-59.0939 
172.404 
50.806 
165.14 
46.8458 
-74.3712 
177.261 
56.0437 
-64.445 
-69.4199 
169.363 
48.8744 
-175.398 
-59.4774 
72.207 
165.688 
39.7045 
-77.8889 
158.609 
163.389 
46.9131 
-77.3098 
-80.6598 
162.864 
38.6413 
39.308 
-77.168 
-161.473 
80.0183 
-43.5473 
140.659 
-98.3305 
19.7167 
-163.604 
-54.8527 
70.0706 
-97.4576 
152.088 
21.6798 
-90.3367 
139.255 
20.118 
29.2223 
-101.186 
139.677 
-164.876 
67.5771 
-50.6907 
85.5647 
-33.9743 
-146.866 
93.5947 
-25.8239 
-145.363 
-57.0706 
66.9246 
-172.677 
-52.2705 
73.0676 
-136.985 
98.0628 
-22.793 
-143.067 
96.0774 
-18.115 
-34.6284 
-155.484 
90.3234 
-158.683 
89.0916 
-30.8747 
-129.157 
115.492 
-3.07662 
-136.699 
104.732 
-21.3482 
-10.8946 
-129.464 
104.456 
-162.248 
-47.6528 
73.233 
-141.628 
104.748 
-11.592 
155.363 
33.1513 
-78.115 
-137.541 
102.963 
-17.8582 
-138.319 
100.86 
-18.8222 
-23.651 
-144.472 
95.8453 
-142.708 
-22.2434 
96.4166 
-151.869 
91.1563 
-25.6266 
-8.88521 
112.508 
-133.361 
173.418 
51.1416 
-64.9631 
166.29 
50.185 
-71.4337 
-73.7561 
170.139 
48.5205 
ITEM: TIMESTEP
32000
ITEM: NUMBER OF ENTRIES
116
ITEM: BOX BOUNDS pp pp pp
-2.1034440479022237e+01 2.1034440479022237e+01
-1.1245775088204779e+01 1.1245775088204779e+01
-1.1245775088204779e+01 1.1245775088204779e+01
ITEM: ENTRIES c_dphi
-66.6028 
175.128 
48.4117 
-178.945 
65.7758 
-61.1731 
-176.084 
56.9669 
-60.8047 
-58.9177 
174.133 
56.3617 
175.662 
-73.0736 
60.4984 
-126.683 
104.536 
-10.4347 
-159.206 
-147.888 
97.649 
-33.6989 
-32.1173 
-146.58 
82.0719 
86.6049 
-27.8581 
-156.278 
88.1078 
-30.0027 
153.24 
-94.6662 
27.775 
-169.825 
-48.1109 
74.1271 
-156.836 
82.9916 
-33.739 
-163.58 
79.6898 
-43.4071 
-38.8384 
-155.569 
81.3341 
-178.686 
70.5163 
-48.0656 
14.1797 
-103.916 
129.671 
11.5747 
-115.721 
126.183 
-67.036 
46.3933 
-126.189 
-6.16792 
108.386 
-154.615 
87.9527 
-35.5412 
-153.547 
82.959 
-36.1153 
-22.7285 
-146.222 
94.7033 
-141.816 
100.758 
-23.9725 
-134.994 
102.032 
-16.6342 
-149.41 
91.9238 
-26.4361 
-32.108 
-150.775 
90.8656 
-166.785 
-45.885 
70.4973 
-103.374 
147.072 
22.3501 
-155.301 
79.7501 
-37.2727 
-146.945 
90.3739 
-26.8035 
-148.201 
94.6217 
-25.5197 
-26.188 
-143.365 
96.4932 
-173.316 
-49.9251 
69.321 
-152.784 
82.7488 
-37.8334 
-173.553 
-58.217 
70.0717 
-157.557 
80.1126 
-41.564 
-157.845 
80.4783 
-35.5143 
-36.0186 
-157.695 
86.3122 
ITEM: TIMESTEP
33000
ITEM: NUMBER OF ENTRIES
116
ITEM: BOX BOUNDS pp pp pp
-2.1034440479022237e+01 2.1034440479022237e+01
-1.1245775088204779e+01 1.1245775088204779e+01
-1.1245775088204779e+01 1.1245775088204779e+01
ITEM: ENTRIES c_dphi
12.1647 
-110.416 
141.725 
-163.125 
78.8176 
-38.423 
-160.956 
81.8038 
-42.8982 
-47.72 
-164.961 
70.3375 
161.429 
-81.1901 
34.9354 
179.495 
61.7439 
-62.6562 
-134.971 
-129.938 
115.083 
-12.4904 
-11.0607 
-126.039 
106.387 
107.581 
-7.3977 
-138.884 
112.227 
-17.2887 
-143.327 
-28.9648 
91.6869 
-177.577 
-57.8706 
60.7054 
178.462 
59.113 
-55.1084 
176.376 
62.1542 
-64.2758 
-64.649 
-178.87 
54.6995 
-140.533 
103.525 
-20.5287 
80.3711 
-43.5231 
-160.896 
75.2103 
-40.0255 
-163.92 
-22.5294 
93.2345 
-172.92 
-50.0065 
71.2626 
-161.568 
78.8608 
-43.1083 
-164.906 
73.1246 
-45.3356 
-47.5105 
-169.48 
72.0603 
-147.146 
102.545 
-20.1867 
-161.395 
77.336 
-40.3239 
-165.31 
77.0304 
-44.0409 
-47.2822 
-164.942 
73.9866 
-177.181 
-57.4253 
65.4542 
-167.922 
71.2988 
-45.4058 
175.804 
59.9168 
-59.0297 
179.604 
61.4685 
-62.2923 
-179.588 
56.6513 
-61.4523 
-62.9552 
173.284 
55.1804 
-158.154 
-39.9375 
82.5553 
-136.704 
101.481 
-15.7894 
171.961 
-68.5647 
58.3938 
-171.817 
64.946 
-56.7318 
-173.224 
65.0979 
-49.9877 
-60.4048 
177.917 
62.8318 
ITEM: TIMESTEP
34000
ITEM: NUMBER OF ENTRIES
116
ITEM: BOX BOUNDS pp pp pp
-2.1034440479022237e+01 2.1034440479022237e+01
-1.1245775088204779e+01 1.1245775088204779e+01
-1.1245775088204779e+01 1.1245775088204779e+01
ITEM: ENTRIES c_dphi
-49.5242 
170.879 
69.7122 
171.155 
58.8732 
-60.6712 
-169.401 
71.0547 
-57.1195 
-56.7099 
-176.254 
55.5715 
153.551 
-95.2282 
26.5855 
159.268 
44.1498 
-83.078 
-173.497 
176.118 
57.2104 
-59.5369 
-55.4935 
-174.401 
68.8516 
62.1578 
-56.7498 
-162.091 
75.1536 
-37.9379 
179.578 
-63.5588 
61.6024 
170.733 
-71.9644 
58.5711 
-140.127 
96.1391 
-19.6424 
-133.785 
110.433 
-10.0517 
-25.0917 
-140.873 
98.6421 
153.953 
24.4732 
-85.3387 
58.5106 
-64.8784 
-177.434 
59.1765 
-63.9274 
172.684 
14.5169 
131.473 
168.166 
-70.7475 
50.6774 
-142.997 
101.944 
-16.098 
-133.277 
108.681 
-18.2172 
-12.9114 
-130.953 
102.148 
-132.094 
105.177 
-14.2491 
-160.979 
74.8343 
-42.7009 
-167.654 
74.8109 
-43.467 
-51.1506 
-168.686 
73.0363 
172.53 
-65.9831 
52.0756 
-173.37 
70.0486 
-45.5014 
166.763 
54.9895 
-64.0299 
170.459 
50.5703 
-71.811 
168.18 
45.7987 
-71.9312 
-80.6926 
156.926 
39.1961 
-129.372 
-8.6966 
115.792 
-130.142 
111.289 
-6.58627 
-124.15 
-0.513861 
108.927 
165.695 
45.3524 
-68.9883 
164.383 
50.0423 
-75.2747 
-82.1568 
163.503 
38.1855 
ITEM: TIMESTEP
35000
ITEM: NUMBER OF ENTRIES
116
ITEM: BOX BOUNDS pp pp pp
-2.1034440479022237e+01 2.1034440479022237e+01
-1.1245775088204779e+01 1.1245775088204779e+01
-1.1245775088204779e+01 1.1245775088204779e+01
ITEM: ENTRIES c_dphi
-70.7419 
165.101 
49.5898 
-168.747 
56.852 
-56.6256 
179.823 
66.3457 
-45.7752 
-69.8732 
176.649 
64.5283 
-162.519 
-26.4556 
83.9455 
177.485 
50.5986 
-66.1132 
176.442 
175.965 
67.4851 
-59.5987 
-66.5742 
-175.054 
57.8619 
52.0064 
-56.4736 
-177.863 
60.2997 
-70.3469 
-176.001 
-52.5809 
53.0359 
-167.826 
-54.9334 
76.047 
-163.602 
79.6098 
-46.6932 
-161.114 
72.583 
-44.3261 
-36.1858 
-162.489 
80.602 
176.067 
60.3285 
-62.9864 
109.459 
-11.8865 
-129.51 
109.145 
-6.75017 
-128.095 
-17.0133 
109.12 
170.36 
-75.434 
48.2244 
-171.838 
71.4145 
-41.9902 
-171.756 
74.8395 
-55.0087 
-53.5418 
-166.947 
63.2052 
-156.92 
85.018 
-35.2064 
179.766 
55.2063 
-56.2601 
175.836 
64.3697 
-59.6044 
-58.5158 
-169.982 
66.0438 
162.069 
-71.9904 
40.4784 
167.008 
45.494 
-72.1301 
-173.803 
66.5941 
-48.9458 
-158.554 
81.2664 
-39.0984 
-161.331 
78.3042 
-41.1515 
-42.9004 
-163.265 
77.2792 
-163.571 
-44.9737 
76.6023 
-174.593 
63.32 
-56.2128 
-104.559 
14.5028 
134.903 
167.245 
49.5471 
-74.9166 
171.143 
46.6791 
-71.1597 
-61.6838 
173.852 
56.0137 
ITEM: TIMESTEP
36000
ITEM: NUMBER OF ENTRIES
116
ITEM: BOX BOUNDS pp pp pp
-2.1034440479022237e+01 2.1034440479022237e+01
-1.1245775088204779e+01 1.1245775088204779e+01
-1.1245775088204779e+01 1.1245775088204779e+01
ITEM: ENTRIES c_dphi
175.903 
48.033 
-75.5637 
173.743 
47.2946 
-70.4471 
172.113 
54.3708 
-61.4389 
-68.3754 
173.883 
58.0732 
178.513 
-53.3499 
64.2977 
-173.477 
70.4256 
-52.2723 
-145.312 
-149.711 
88.3512 
-28.6693 
-25.194 
-147.132 
95.8475 
93.6466 
-28.2914 
-154.187 
79.9382 
-25.4031 
-169.065 
-44.1608 
71.7976 
176.64 
-52.8162 
56.6591 
-136.295 
99.1178 
-24.916 
-137.043 
98.9237 
-12.455 
-27.8881 
-151.922 
96.6994 
165.724 
47.5724 
-73.0887 
111.401 
8.88116 
-129.008 
128.472 
-4.02513 
-106.545 
-1.4021 
107.065 
168.813 
-66.8634 
44.1059 
-170.992 
64.3536 
-44.7995 
-179.035 
71.812 
-54.3802 
-58.6693 
-167.822 
65.9854 
-165.341 
74.1451 
-39.9683 
173.735 
54.0577 
-71.2569 
164.683 
47.142 
-70.8641 
169.013 
51.0073 
-73.4454 
-72.8258 
169.168 
44.7155 
170.716 
-70.7465 
47.3921 
-176.685 
67.3764 
-57.1802 
165.81 
44.7179 
-76.8066 
162.401 
40.8767 
-76.5071 
-80.8481 
157.627 
40.2436 
-174.735 
-50.4286 
70.4736 
-166.263 
72.5729 
-48.3973 
-155.854 
-32.1867 
94.238 
173.916 
46.5677 
-70.2237 
174.371 
57.5799 
-58.28 
-73.2011 
170.007 
54.1475 
ITEM: TIMESTEP
37000
ITEM: NUMBER OF ENTRIES
116
ITEM: BOX BOUNDS pp pp pp
-2.1034440479022237e+01 2.1034440479022237e+01
-1.1245775088204779e+01 1.1245775088204779e+01
-1.1245775088204779e+01 1.1245775088204779e+01
ITEM: ENTRIES c_dphi
103.404 
-11.9991 
-123.183 
168.841 
48.5463 
-65.2188 
170.497 
56.7322 
-69.2084 
-79.5857 
166.649 
40.7086 
176.263 
-63.7675 
57.4904 
-150.98 
85.8365 
-49.4632 
-169.136 
-176.841 
62.791 
-45.1171 
-53.5893 
-173.957 
78.135 
59.1393 
-61.2283 
165.948 
47.1206 
-80.5894 
-171.212 
-35.4827 
78.051 
-156.495 
-34.6255 
87.8308 
160.457 
38.9907 
-80.1963 
158.024 
38.8375 
-80.5095 
-78.6353 
162.178 
42.8307 
-139.097 
98.0055 
-19.9458 
74.868 
-48.8314 
-165.637 
70.6638 
-43.5414 
-167.241 
-34.0973 
84.4445 
172.67 
-67.9164 
50.3554 
137.108 
22.7917 
-100.223 
140.802 
17.7876 
-104.882 
-104.471 
132.515 
9.84519 
-169.661 
68.8886 
-51.0682 
-159.387 
78.8517 
-40.4872 
-162.338 
75.7126 
-50.4832 
-162.894 
70.9101 
-40.9443 
-38.8102 
-165.006 
83.1396 
163.592 
-73.7727 
52.4015 
158.1 
39.4698 
-81.8345 
-155.421 
82.1619 
-34.1063 
-155.402 
88.3296 
-32.9851 
-39.8167 
-156.085 
82.6004 
-154.898 
-34.6931 
83.6051 
178.143 
58.4517 
-69.8929 
-127.229 
-12.3318 
112.353 
178.585 
61.5634 
-52.7214 
-174.119 
71.5958 
-57.0974 
-50.2631 
-164.548 
66.7589 
ITEM: TIMESTEP
38000
ITEM: NUMBER OF ENTRIES
116
ITEM: BOX BOUNDS pp pp pp
-2.1034440479022237e+01 2.1034440479022237e+01
-1.1245775088204779e+01 1.1245775088204779e+01
-1.1245775088204779e+01 1.1245775088204779e+01
ITEM: ENTRIES c_dphi
93.6434 
-22.1518 
-159.338 
175.971 
57.5678 
-58.1037 
175.478 
59.8067 
-66.1184 
-68.167 
176.161 
50.2364 
-168.709 
-52.0795 
75.1807 
164.36 
48.7003 
-65.5178 
175.202 
167.774 
54.3912 
-66.8293 
-77.2932 
169.325 
48.104 
49.8046 
-63.5777 
170.4 
62.0448 
-67.2069 
-148.405 
-21.58 
93.1899 
-171.744 
-49.4989 
70.8538 
167.933 
46.1213 
-75.1978 
165.447 
44.128 
-72.7412 
-80.0496 
158.631 
41.762 
144.272 
20.5348 
-92.1156 
21.4751 
-91.1922 
145.112 
32.4447 
-103.573 
143.76 
-114.719 
6.42202 
-145.252 
-27.9552 
86.188 
-136.645 
100.935 
-15.0269 
-142.124 
101.914 
-19.7047 
-20.7391 
-136.701 
101.68 
173.244 
53.4662 
-64.6392 
-153.442 
85.0238 
-35.0918 
174.736 
50.4302 
-64.7402 
170.633 
55.463 
-65.061 
-70.2773 
174.552 
54.0283 
-179.752 
-57.1407 
57.9165 
175.336 
57.9342 
-73.0614 
-178.718 
65.0096 
-61.9031 
-173.287 
59.8005 
-57.0148 
-56.0024 
177.085 
60.2696 
175.711 
-70.2629 
57.7378 
-171.798 
72.5556 
-56.6561 
176.038 
61.5492 
-55.3423 
-177.962 
65.147 
-63.4728 
-56.6718 
-173.563 
57.817 
113.824 
-135.625 
-17.8672 
ITEM: TIMESTEP
39000
ITEM: NUMBER OF ENTRIES
116
ITEM: BOX BOUNDS pp pp pp
-2.1034440479022237e+01 2.1034440479022237e+01
-1.1245775088204779e+01 1.1245775088204779e+01
-1.1245775088204779e+01 1.1245775088204779e+01
ITEM: ENTRIES c_dphi
171.603 
51.1968 
-72.3895 
175.443 
63.2005 
-66.445 
-161.227 
69.1277 
-48.9838 
-41.847 
-171.493 
70.3959 
161.717 
-80.6856 
37.5401 
157.038 
37.1064 
-87.5788 
157.487 
169.582 
41.8354 
-84.5093 
-66.3737 
165.88 
39.535 
51.5785 
-76.1681 
171.468 
54.7461 
-61.8774 
168.706 
-79.9259 
49.7063 
161.146 
-69.532 
39.7235 
166.852 
41.1649 
-72.7356 
158.637 
44.7363 
-75.6761 
-86.6688 
159.431 
39.0184 
148.509 
27.5165 
-90.1844 
28.5013 
-89.4158 
149.844 
31.9265 
-86.8477 
155.235 
-13.7665 
109.85 
-171.96 
-51.4795 
63.9572 
173.07 
55.1473 
-70.6203 
169.407 
43.6396 
-72.6698 
-74.0116 
160.221 
43.9115 
-167.925 
79.3016 
-40.8755 
-150.874 
81.9728 
-32.0394 
-157.841 
88.7844 
-29.2731 
-149.921 
92.0219 
-36.5458 
-30.0155 
-148.073 
83.3593 
167.13 
-77.6345 
37.7555 
-169.11 
71.1234 
-47.9602 
-161.592 
75.638 
-38.9444 
-163.083 
82.3343 
-40.3135 
-45.3823 
-159.965 
77.3876 
-130.378 
-7.11193 
105.988 
-160.455 
88.3988 
-40.4907 
173.197 
54.713 
-69.265 
172.045 
48.0668 
-69.4713 
-70.3429 
165.679 
48.1411 
128.608 
-112.728 
16.4286 
ITEM: TIMESTEP
40000
ITEM: NUMBER OF ENTRIES
116
ITEM: BOX BOUNDS pp pp pp
-2.1034440479022237e+01 2.1034440479022237e+01
-1.1245775088204779e+01 1.1245775088204779e+01
-1.1245775088204779e+01 1.1245775088204779e+01
ITEM: ENTRIES c_dphi
-61.0354 
174.919 
48.2978 
-164.292 
64.8573 
-55.7411 
-162.954 
76.4476 
-32.103 
-54.5 
-175.098 
76.3511 
175.014 
-56.1233 
61.7969 
-173.035 
65.3937 
-54.1829 
-175.882 
-173.794 
63.6627 
-54.5816 
-56.8577 
-179.401 
62.3545 
64.9053 
-57.6381 
-176.492 
63.8964 
-54.7637 
-163.681 
-51.0371 
79.386 
151.881 
-87.2693 
26.9918 
157.156 
38.7533 
-75.4467 
158.119 
43.9186 
-83.4787 
-84.8571 
160.943 
33.5456 
167.181 
48.1093 
-73.5956 
56.2915 
-53.5204 
173.826 
64.0145 
-62.4022 
-172.214 
-18.3127 
96.895 
171.653 
56.194 
-63.5709 
-174.818 
65.4167 
-59.3593 
-60.581 
179.654 
54.878 
171.071 
46.7895 
-80.7144 
175.624 
-70.445 
51.6959 
-175.648 
67.2396 
-50.0174 
-133.218 
108.269 
-12.967 
-135.185 
103.578 
-16.6723 
-15.5489 
-136.785 
102.964 
-171.616 
-52.0517 
64.9513 
-174.938 
62.216 
-54.4111 
-118.631 
123.872 
1.92953 
-113.617 
124.44 
3.87942 
-3.272 
-125.215 
114.225 
-169.098 
-52.2676 
69.6232 
-179.017 
57.3713 
-62.0754 
-179.273 
76.2054 
-50.2902 
-160.363 
73.1415 
-55.8415 
-38.0242 
-164.52 
66.4973 
89.8729 
-158.775 
-37.0728 
ITEM: TIMESTEP
41000
ITEM: NUMBER OF ENTRIES
116
ITEM: BOX BOUNDS pp pp pp
-2.1034440479022237e+01 2.1034440479022237e+01
-1.1245775088204779e+01 1.1245775088204779e+01
-1.1245775088204779e+01 1.1245775088204779e+01
ITEM: ENTRIES c_dphi
69.0721 
-39.2335 
-154.653 
-174.745 
69.3753 
-45.4425 
-178.868 
66.3141 
-62.9883 
-66.1133 
179.069 
49.7665 
177.342 
-76.7524 
50.2627 
176.659 
59.1483 
-59.0928 
156.464 
152.223 
34.2488 
-83.2754 
-88.3913 
153.635 
36.1104 
31.962 
-86.0121 
147.05 
16.4978 
-99.6472 
175.564 
-60.187 
51.9146 
164.363 
-68.6997 
47.1767 
152.718 
30.6601 
-87.6403 
161.076 
42.7751 
-76.8669 
-85.2037 
156.496 
36.8538 
165.534 
49.3693 
-72.2757 
48.038 
-62.1071 
171.903 
61.758 
-79.3089 
170.546 
-45.4832 
57.8879 
-157.348 
73.5923 
-40.7475 
-170.759 
74.9007 
-41.7001 
-52.9555 
-167.295 
76.1039 
178.978 
57.823 
-54.7294 
-154.625 
-27.5783 
84.8306 
164.363 
43.0911 
-77.5978 
-165.703 
72.1429 
-45.3534 
-161.035 
81.4686 
-38.8813 
-45.7139 
-163.21 
76.4399 
-161.041 
-40.9495 
80.4711 
179.804 
53.8933 
-65.7588 
-148.098 
93.5927 
-28.354 
-141.284 
96.769 
-22.9747 
-26.2852 
-148.232 
92.0245 
157.234 
-85.6349 
39.2727 
114.163 
-11.0763 
-127.53 
-164.586 
81.0864 
-34.2021 
-153.04 
91.6716 
-38.7118 
-33.4965 
-148.785 
80.8315 
40.0294 
152.834 
-83.4458 
