ITEM: TIMESTEP
26200
ITEM: NUMBER OF ENTRIES
116
ITEM: BOX BOUNDS pp pp pp
-2.1034440479022237e+01 2.1034440479022237e+01
-1.1245775088204779e+01 1.1245775088204779e+01
-1.1245775088204779e+01 1.1245775088204779e+01
ITEM: ENTRIES index c_dphi
1 145.497 
2 -95.7995 
3 18.7196 
4 -103.863 
5 138.127 
6 17.5579 
7 -99.4235 
8 140.007 
9 18.5865 
10 20.0987 
11 -100.47 
12 138.109 
13 -160.538 
14 78.729 
15 -38.2764 
16 -24.4349 
17 -130.471 
18 91.3691 
19 -14.667 
20 -151.774 
21 102.19 
22 18.3862 
23 128.799 
24 22.5823 
25 -98.8611 
26 139.468 
27 95.3863 
28 -27.6333 
29 -147.622 
30 109.346 
31 103.581 
32 -17.1039 
33 -131.51 
34 -140.061 
35 99.2536 
36 -15.153 
37 -15.5618 
38 -136.247 
39 -175.272 
40 72.1499 
41 -53.1394 
42 -159.503 
43 75.2073 
44 -46.9254 
45 -49.3502 
46 -174.64 
47 63.2278 
48 174.539 
49 -67.8049 
50 51.606 
51 -110.508 
52 126.452 
53 10.253 
54 -163.296 
55 -41.1028 
56 77.7198 
57 -149.686 
58 93.4649 
59 -28.4709 
60 -150.249 
61 87.8151 
62 -33.4004 
63 -26.8643 
64 -148.8 
65 89.9844 
66 175.746 
67 -72.2336 
68 47.7205 
69 165.875 
70 47.943 
71 -74.671 
72 148.509 
73 -93.5515 
74 27.9803 
75 -172.668 
76 70.6871 
77 -45.4014 
78 -169.224 
79 74.6871 
80 -52.579 
81 -53.5793 
82 -169.668 
83 63.066 
84 179.977 
85 61.9914 
86 -55.9113 
87 72.4206 
88 -48.4922 
89 -166.895 
90 143.199 
91 27.9714 
92 -97.2025 
93 148.78 
94 23.6059 
95 -95.9922 
96 -86.2596 
97 148.566 
98 28.9683 
99 -162.544 
100 -44.7819 
101 72.9283 
102 -114.967 
103 119.503 
104 -0.0126378 
105 113.217 
106 -122.908 
107 -3.31965 
108 70.7706 
109 -48.0923 
110 -168.488 
111 76.5763 
112 -43.8195 
113 -164.561 
114 -160.07 
115 79.5339 
116 -41.2073 
ITEM: TIMESTEP
26300
ITEM: NUMBER OF ENTRIES
116
ITEM: BOX BOUNDS pp pp pp
-2.1034440479022237e+01 2.1034440479022237e+01
-1.1245775088204779e+01 1.1245775088204779e+01
-1.1245775088204779e+01 1.1245775088204779e+01
ITEM: ENTRIES index c_dphi
1 120.949 
2 -113.083 
3 1.09202 
4 -105.549 
5 131.568 
6 20.386 
7 -103.007 
8 145.811 
9 19.8756 
10 15.0618 
11 -96.1199 
12 137.945 
13 -171.757 
14 64.417 
15 -49.2824 
16 -15.4637 
17 -129.018 
18 109.232 
19 -4.32219 
20 -131.862 
21 114.583 
22 0.566145 
23 124.529 
24 35.4428 
25 -87.8248 
26 156.633 
27 100.414 
28 -22.9065 
29 -139.358 
30 102.935 
31 111.128 
32 -14.2321 
33 -132.742 
34 -138.478 
35 96.162 
36 -22.348 
37 -13.1949 
38 -138.555 
39 167.882 
40 47.8545 
41 -64.2992 
42 169.744 
43 57.5904 
44 -70.2289 
45 -65.8843 
46 -178.038 
47 54.1427 
48 152.193 
49 -88.0761 
50 25.5883 
51 -96.6141 
52 144.203 
53 30.1994 
54 -171.409 
55 -55.1732 
56 65.5988 
57 -157.238 
58 80.2938 
59 -37.0597 
60 -165.156 
61 77.4905 
62 -42.688 
63 -44.3462 
64 -161.7 
65 78.1217 
66 -166.025 
67 -47.5225 
68 68.4786 
69 165.325 
70 51.204 
71 -70.4168 
72 178.131 
73 -55.6209 
74 58.0612 
75 -169.039 
76 63.2308 
77 -52.8331 
78 -179 
79 64.936 
80 -51.2699 
81 -52.7706 
82 -168.834 
83 74.9597 
84 159.909 
85 37.195 
86 -82.1406 
87 85.0178 
88 -35.8817 
89 -150.706 
90 138.592 
91 19.3956 
92 -101.925 
93 141.261 
94 19.9405 
95 -99.5427 
96 -107.951 
97 130.729 
98 11.2454 
99 177.977 
100 -60.6604 
101 58.0106 
102 -134.798 
103 104.758 
104 -8.38555 
105 46.2124 
106 165.871 
107 -74.3551 
108 43.5088 
109 -76.2345 
110 164.863 
111 44.4252 
112 -74.4776 
113 164.168 
114 155.159 
115 36.2566 
116 -85.0974 
ITEM: TIMESTEP
26400
ITEM: NUMBER OF ENTRIES
116
ITEM: BOX BOUNDS pp pp pp
-2.1034440479022237e+01 2.1034440479022237e+01
-1.1245775088204779e+01 1.1245775088204779e+01
-1.1245775088204779e+01 1.1245775088204779e+01
ITEM: ENTRIES index c_dphi
1 141.472 
2 -99.0506 
3 18.5143 
4 -107.836 
5 137.64 
6 17.8722 
7 -98.3606 
8 141.871 
9 16.1629 
10 16.6196 
11 -103.148 
12 131.143 
13 -158.486 
14 76.3429 
15 -40.0309 
16 -16.5092 
17 -131.258 
18 106.22 
19 -8.52878 
20 -137.625 
21 107.626 
22 14.912 
23 124.121 
24 -39.691 
25 -163.188 
26 73.9266 
27 72.0762 
28 -50.9128 
29 -168.754 
30 120.488 
31 120.261 
32 5.17272 
33 -116.321 
34 -122.765 
35 122.147 
36 0.653194 
37 -2.9304 
38 -118.018 
39 177.796 
40 60.3413 
41 -54.8523 
42 -167.4 
43 77.4065 
44 -49.9452 
45 -53.0114 
46 -168.205 
47 64.4433 
48 158.162 
49 -80.8383 
50 30.3274 
51 -105.261 
52 134.003 
53 11.0645 
54 -165.872 
55 -42.9768 
56 73.0186 
57 -156.828 
58 80.1637 
59 -36.9178 
60 -159.765 
61 83.1534 
62 -36.7571 
63 -42.906 
64 -159.987 
65 80.102 
66 -175.491 
67 -57.4902 
68 62.6693 
69 159.187 
70 37.212 
71 -74.6683 
72 174.688 
73 -60.2367 
74 56.4115 
75 -155.94 
76 79.8872 
77 -39.4836 
78 -161.238 
79 79.3914 
80 -37.0649 
81 -48.94 
82 -168.311 
83 75.2329 
84 156.644 
85 40.4769 
86 -76.568 
87 69.5648 
88 -50.812 
89 -164.444 
90 135.91 
91 17.0213 
92 -107.829 
93 136.361 
94 11.51 
95 -104.751 
96 -109.236 
97 125.913 
98 9.65279 
99 155.7 
100 -83.8299 
101 37.9336 
102 -164.1 
103 75.075 
104 -41.0263 
105 63.8699 
106 178.623 
107 -59.9973 
108 81.6604 
109 -38.2398 
110 -152.395 
111 87.0189 
112 -27.1364 
113 -153.081 
114 -161.501 
115 84.3434 
116 -41.601 
ITEM: TIMESTEP
26500
ITEM: NUMBER OF ENTRIES
116
ITEM: BOX BOUNDS pp pp pp
-2.1034440479022237e+01 2.1034440479022237e+01
-1.1245775088204779e+01 1.1245775088204779e+01
-1.1245775088204779e+01 1.1245775088204779e+01
ITEM: ENTRIES index c_dphi
1 138.707 
2 -108.183 
3 20.3373 
4 -86.1465 
5 157.872 
6 35.1402 
7 -77.3367 
8 159.932 
9 38.6452 
10 36.0001 
11 -86.7313 
12 151.982 
13 -171.031 
14 67.9496 
15 -49.4944 
16 -34.0146 
17 -148.791 
18 81.6231 
19 -33.1536 
20 -159.014 
21 86.2097 
22 -5.16193 
23 119.176 
24 -29.026 
25 -153.923 
26 88.5865 
27 92.3734 
28 -34.9221 
29 -148.001 
30 90.6627 
31 86.4104 
32 -31.9045 
33 -150.109 
34 -158.274 
35 83.4114 
36 -34.7936 
37 -32.8175 
38 -151.132 
39 161.606 
40 40.8541 
41 -80.6378 
42 167.547 
43 46.0552 
44 -71.7012 
45 -67.1815 
46 171.327 
47 53.5703 
48 -164.207 
49 -40.8598 
50 76.0863 
51 -113.481 
52 124.208 
53 8.01234 
54 -173.475 
55 -46.795 
56 72.9107 
57 153.231 
58 30.8319 
59 -85.1569 
60 152.16 
61 36.1711 
62 -85.4406 
63 -86.2297 
64 157.781 
65 36.1698 
66 145.095 
67 -96.6809 
68 22.5546 
69 135.968 
70 12.7275 
71 -105.17 
72 -160.685 
73 -35.1201 
74 80.4821 
75 -117.001 
76 116.018 
77 -1.98116 
78 -128.041 
79 113.96 
80 -1.05911 
81 -13.0542 
82 -131.053 
83 113.928 
84 -176.885 
85 62.4468 
86 -53.182 
87 111.049 
88 -14.3143 
89 -135.104 
90 170.577 
91 50.7981 
92 -71.2853 
93 179.961 
94 57.878 
95 -60.2601 
96 -62.6682 
97 175.248 
98 57.1103 
99 -173.346 
100 -52.1285 
101 65.2954 
102 160.737 
103 39.4078 
104 -81.9834 
105 64.8258 
106 -171.267 
107 -55.7932 
108 95.0249 
109 -30.2686 
110 -149.767 
111 93.0249 
112 -26.4737 
113 -141.682 
114 -145.259 
115 95.2421 
116 -19.9658 
ITEM: TIMESTEP
26600
ITEM: NUMBER OF ENTRIES
116
ITEM: BOX BOUNDS pp pp pp
-2.1034440479022237e+01 2.1034440479022237e+01
-1.1245775088204779e+01 1.1245775088204779e+01
-1.1245775088204779e+01 1.1245775088204779e+01
ITEM: ENTRIES index c_dphi
1 109.557 
2 -127.575 
3 -6.67313 
4 -74.3025 
5 167.84 
6 45.8289 
7 -71.624 
8 166.365 
9 46.2333 
10 49.3453 
11 -72.666 
12 167.203 
13 -170.046 
14 78.9111 
15 -51.3435 
16 -26.5245 
17 -137.208 
18 88.7606 
19 -21.923 
20 -150.811 
21 98.5054 
22 15.2228 
23 134.982 
24 -114.422 
25 126.487 
26 7.68063 
27 89.3653 
28 -28.7199 
29 -152.996 
30 98.7184 
31 106.961 
32 -16.0322 
33 -135.486 
34 -140.805 
35 96.2015 
36 -23.2522 
37 -18.8349 
38 -141.828 
39 155.423 
40 42.0717 
41 -83.106 
42 162.937 
43 37.7592 
44 -83.7119 
45 -77.3312 
46 157.491 
47 36.0201 
48 -164.262 
49 -44.899 
50 66.2894 
51 -100.148 
52 135.687 
53 19.2273 
54 154.683 
55 -86.574 
56 31.5098 
57 -176.51 
58 64.6857 
59 -53.7868 
60 -179.075 
61 62.4524 
62 -60.2704 
63 -52.8465 
64 -171.319 
65 65.9581 
66 154.129 
67 -88.7797 
68 32.5111 
69 168.075 
70 50.7407 
71 -71.0118 
72 -177.401 
73 -55.962 
74 61.6847 
75 -150.145 
76 90.3885 
77 -31.6454 
78 -149.649 
79 88.317 
80 -30.1829 
81 -30.7248 
82 -152.759 
83 88.7413 
84 169.3 
85 45.4023 
86 -69.9947 
87 102.307 
88 -27.974 
89 -140.707 
90 158.92 
91 40.789 
92 -80.3239 
93 173.328 
94 52.2148 
95 -68.5417 
96 -70.8856 
97 168.002 
98 47.2451 
99 179.742 
100 -60.7367 
101 57.3381 
102 162.813 
103 44.4975 
104 -75.2901 
105 46.5399 
106 164.276 
107 -78.2797 
108 84.2353 
109 -32.1706 
110 -153.956 
111 86.9316 
112 -34.8536 
113 -156.663 
114 -150.204 
115 88.0106 
116 -33.7983 
ITEM: TIMESTEP
26700
ITEM: NUMBER OF ENTRIES
116
ITEM: BOX BOUNDS pp pp pp
-2.1034440479022237e+01 2.1034440479022237e+01
-1.1245775088204779e+01 1.1245775088204779e+01
-1.1245775088204779e+01 1.1245775088204779e+01
ITEM: ENTRIES index c_dphi
1 118.895 
2 -127.909 
3 -8.03733 
4 -112.219 
5 132.888 
6 14.491 
7 -104.988 
8 136.616 
9 9.90585 
10 13.6237 
11 -104.773 
12 128.517 
13 -150.707 
14 88.471 
15 -40.4463 
16 -30.4237 
17 -147.144 
18 90.6761 
19 -26.0441 
20 -144.593 
21 98.6864 
22 -22.0459 
23 104.107 
24 158.474 
25 42.0309 
26 -86.5171 
27 85.2933 
28 -36.8159 
29 -158.218 
30 122.987 
31 128.094 
32 11.2966 
33 -116.523 
34 -118.522 
35 124.681 
36 -3.13867 
37 7.60351 
38 -109.194 
39 -178.457 
40 63.6078 
41 -56.6489 
42 -174.717 
43 65.0259 
44 -56.7824 
45 -54.8758 
46 -175.132 
47 63.0592 
48 157.646 
49 -83.309 
50 31.4089 
51 -134.169 
52 109.317 
53 -5.27986 
54 150.319 
55 -94.0135 
56 22.7323 
57 -129.025 
58 111.574 
59 -8.92556 
60 -131.378 
61 108.123 
62 -11.9765 
63 -10.6464 
64 -131.146 
65 108.755 
66 157.414 
67 -87.1597 
68 37.4484 
69 175.72 
70 57.1221 
71 -61.6286 
72 164.137 
73 -75.7515 
74 37.9794 
75 -147.623 
76 96.2471 
77 -23.2973 
78 -139.387 
79 101.068 
80 -23.2576 
81 -26.4738 
82 -146.018 
83 89.656 
84 177.876 
85 59.7711 
86 -60.3368 
87 71.9008 
88 -50.9492 
89 -167.014 
90 159.742 
91 40.2402 
92 -81.5642 
93 160.992 
94 39.1875 
95 -79.5062 
96 -79.2885 
97 158.907 
98 40.2134 
99 178.38 
100 -60.3271 
101 62.2002 
102 168.816 
103 43.8058 
104 -71.8667 
105 51.5601 
106 163.097 
107 -72.4832 
108 74.7676 
109 -35.7719 
110 -159.207 
111 89.2645 
112 -34.171 
113 -160.196 
114 -157.553 
115 79.0118 
116 -47.0131 
ITEM: TIMESTEP
26800
ITEM: NUMBER OF ENTRIES
116
ITEM: BOX BOUNDS pp pp pp
-2.1034440479022237e+01 2.1034440479022237e+01
-1.1245775088204779e+01 1.1245775088204779e+01
-1.1245775088204779e+01 1.1245775088204779e+01
ITEM: ENTRIES index c_dphi
1 161.774 
2 -72.8663 
3 46.4719 
4 -112.052 
5 128.27 
6 5.68298 
7 -108.912 
8 128.501 
9 10.7659 
10 7.89005 
11 -114.697 
12 127.568 
13 -156.125 
14 86.0371 
15 -33.9633 
16 -83.3337 
17 159.277 
18 34.3246 
19 -83.0651 
20 153.063 
21 35.6734 
22 -49.9228 
23 72.5849 
24 -109.502 
25 143.828 
26 13.5178 
27 61.4642 
28 -62.8836 
29 -175.918 
30 136.306 
31 136.828 
32 17.9437 
33 -108.898 
34 -104.59 
35 136.525 
36 9.68359 
37 22.0319 
38 -96.8529 
39 -143.389 
40 93.5037 
41 -24.4626 
42 -150.131 
43 91.9027 
44 -27.0233 
45 -28.6175 
46 -146.584 
47 94.4902 
48 172.309 
49 -64.7245 
50 49.9996 
51 -160.848 
52 86.3775 
53 -36.284 
54 154.924 
55 -90.5608 
56 27.8373 
57 -132.591 
58 102.311 
59 -9.35012 
60 -132.793 
61 115.546 
62 -7.69509 
63 -17.5376 
64 -129.199 
65 107.56 
66 146.033 
67 -92.8809 
68 23.4037 
69 139.664 
70 18.2516 
71 -99.3439 
72 178.874 
73 -61.5429 
74 59.7847 
75 -88.1113 
76 154.214 
77 33.2292 
78 -75.9227 
79 163.092 
80 41.7519 
81 38.6593 
82 -82.3255 
83 156.334 
84 -173.571 
85 60.4226 
86 -64.2527 
87 84.5282 
88 -31.3563 
89 -150.1 
90 157.758 
91 35.7747 
92 -80.3551 
93 152.9 
94 36.7698 
95 -85.1172 
96 -93.1466 
97 150.724 
98 28.8366 
99 162.42 
100 -76.1832 
101 41.3065 
102 163.664 
103 45.1745 
104 -71.6679 
105 77.4992 
106 -164.667 
107 -46.288 
108 66.8006 
109 -50.0817 
110 -160.638 
111 69.8261 
112 -40.7306 
113 -173.292 
114 -171.274 
115 78.1692 
116 -54.3918 
ITEM: TIMESTEP
26900
ITEM: NUMBER OF ENTRIES
116
ITEM: BOX BOUNDS pp pp pp
-2.1034440479022237e+01 2.1034440479022237e+01
-1.1245775088204779e+01 1.1245775088204779e+01
-1.1245775088204779e+01 1.1245775088204779e+01
ITEM: ENTRIES index c_dphi
1 -173.449 
2 -46.0001 
3 68.763 
4 -98.4633 
5 136.378 
6 20.5227 
7 -98.6341 
8 145.51 
9 26.5243 
10 12.2419 
11 -103.614 
12 137.4 
13 -173.58 
14 64.8367 
15 -46.3302 
16 -106.197 
17 148.292 
18 15.9524 
19 -89.5585 
20 126.618 
21 21.1067 
22 -20.3998 
23 95.8799 
24 -83.8026 
25 165.529 
26 47.277 
27 70.4018 
28 -55.2886 
29 -165.196 
30 119.152 
31 113.729 
32 0.513758 
33 -125.021 
34 -129.121 
35 117.664 
36 -7.86985 
37 -2.0994 
38 -115.314 
39 -154.878 
40 85.0499 
41 -36.2132 
42 -156.602 
43 82.135 
44 -36.53 
45 -45.9091 
46 -167.172 
47 74.1629 
48 -159.611 
49 -42.7227 
50 78.2527 
51 -158.267 
52 85.0608 
53 -29.0022 
54 125.537 
55 -116.519 
56 7.37956 
57 -125.351 
58 111.575 
59 0.0642259 
60 -127.198 
61 121.291 
62 -4.12436 
63 -3.92133 
64 -115.432 
65 119.153 
66 154.586 
67 -85.9821 
68 29.8488 
69 147.775 
70 28.0659 
71 -92.7016 
72 170.985 
73 -74.4519 
74 52.9015 
75 -111.635 
76 130.915 
77 11.6264 
78 -117.178 
79 123.533 
80 0.271549 
81 6.55319 
82 -112.736 
83 124.003 
84 145.076 
85 31.1371 
86 -92.9005 
87 90.4781 
88 -28.3866 
89 -150.367 
90 154.224 
91 32.7078 
92 -85.3546 
93 155.214 
94 37.1513 
95 -83.2699 
96 -85.7349 
97 156.203 
98 35.7816 
99 161.64 
100 -77.1929 
101 39.237 
102 169.773 
103 45.9653 
104 -71.291 
105 -15.5989 
106 98.1496 
107 -142.727 
108 71.3002 
109 -45.8241 
110 -155.576 
111 74.7642 
112 -34.9877 
113 -168.111 
114 -159.832 
115 90.4164 
116 -42.7075 
ITEM: TIMESTEP
27000
ITEM: NUMBER OF ENTRIES
116
ITEM: BOX BOUNDS pp pp pp
-2.1034440479022237e+01 2.1034440479022237e+01
-1.1245775088204779e+01 1.1245775088204779e+01
-1.1245775088204779e+01 1.1245775088204779e+01
ITEM: ENTRIES index c_dphi
1 166.508 
2 -75.2 
3 40.8322 
4 -112.263 
5 123.361 
6 9.76393 
7 -113.493 
8 132.911 
9 10.8834 
10 -1.76803 
11 -115.365 
12 122.608 
13 173.053 
14 51.0343 
15 -70.4179 
16 -73.4655 
17 172.118 
18 46.5675 
19 -67.8492 
20 167.807 
21 53.3906 
22 -22.2615 
23 91.4749 
24 -92.4552 
25 151.801 
26 37.3781 
27 104.451 
28 -16.7335 
29 -133.131 
30 107.842 
31 110.062 
32 -11.6474 
33 -130.49 
34 -134.275 
35 104.015 
36 -14.8278 
37 -11.6053 
38 -133.315 
39 -174.596 
40 70.9594 
41 -52.8339 
42 -171.774 
43 64.4329 
44 -57.3292 
45 -50.8071 
46 -174.6 
47 63.6375 
48 170.97 
49 -76.3154 
50 54.8859 
51 -175.824 
52 64.9625 
53 -51.1191 
54 105.995 
55 -129.001 
56 -13.7038 
57 -152.706 
58 88.2214 
59 -26.6288 
60 -155.685 
61 89.4651 
62 -36.6118 
63 -35.3262 
64 -150.176 
65 83.7467 
66 139.789 
67 -100.837 
68 13.1135 
69 -157.494 
70 83.659 
71 -37.5889 
72 -155.26 
73 -33.7843 
74 85.8012 
75 -142.99 
76 91.5183 
77 -28.4907 
78 -141.938 
79 98.0532 
80 -16.4462 
81 -18.8673 
82 -138.876 
83 106.624 
84 104.924 
85 -20.0436 
86 -138.042 
87 93.446 
88 -42.6297 
89 -153.811 
90 155.382 
91 34.7734 
92 -85.5222 
93 169.198 
94 48.9024 
95 -70.1937 
96 -77.8577 
97 161.847 
98 42.7506 
99 169.428 
100 -68.3662 
101 50.4023 
102 178.535 
103 53.064 
104 -60.441 
105 142.253 
106 -96.4501 
107 22.5215 
108 46.7709 
109 -76.2944 
110 166.103 
111 45.1051 
112 -72.4977 
113 168.17 
114 162.666 
115 45.0632 
116 -74.2687 
ITEM: TIMESTEP
27100
ITEM: NUMBER OF ENTRIES
116
ITEM: BOX BOUNDS pp pp pp
-2.1034440479022237e+01 2.1034440479022237e+01
-1.1245775088204779e+01 1.1245775088204779e+01
-1.1245775088204779e+01 1.1245775088204779e+01
ITEM: ENTRIES index c_dphi
1 -145.339 
2 100.287 
3 -23.3018 
4 94.8094 
5 -23.7361 
6 -144.097 
7 115.075 
8 119.415 
9 10.3371 
10 -115.106 
11 -126.03 
12 124.892 
13 -0.55177 
14 -10.4035 
15 -119.482 
16 -164.497 
17 79.1323 
18 -40.2944 
19 -159.827 
20 80.7463 
21 -43.4567 
22 -43.1118 
23 -162.538 
24 73.2585 
25 150.223 
26 -94.1546 
27 33.7771 
28 -169.383 
29 58.5801 
30 -53.4514 
31 107.464 
32 -129.865 
33 -16.3805 
34 165.801 
35 -76.963 
36 47.1701 
37 -132.358 
38 110.623 
39 -6.25255 
40 -130.816 
41 112.309 
42 -13.7962 
43 -10.8647 
44 -127.74 
45 106.155 
46 -167.251 
47 72.4804 
48 -46.4384 
49 -66.7848 
50 168.045 
51 52.9895 
52 -72.1807 
53 175.049 
54 49.8785 
55 -36.5206 
56 81.8729 
57 -150.187 
58 90.9314 
59 -29.7757 
60 -144.489 
61 94.8041 
62 -25.6075 
63 -32.1885 
64 -152.896 
65 86.6928 
66 147.878 
67 -94.9468 
68 27.2941 
69 -159.564 
70 79.9327 
71 -39.314 
72 -164.058 
73 -47.9616 
74 67.0093 
75 -135.293 
76 108.264 
77 -3.25762 
78 -128.287 
79 120.191 
80 -11.844 
81 -14.7399 
82 -126.261 
83 101.703 
84 100.109 
85 -20.2611 
86 -138.138 
87 83.7989 
88 -47.5343 
89 -157.909 
90 163.507 
91 46.0016 
92 -73.0685 
93 178.714 
94 59.6438 
95 -63.7804 
96 -67.2352 
97 173.695 
98 50.2705 
99 176.634 
100 -65.3967 
101 51.8203 
102 165.457 
103 41.2523 
104 -68.9265 
105 175.851 
106 -63.0735 
107 55.005 
108 86.1279 
109 -40.5776 
110 -151.971 
111 83.2708 
112 -28.1222 
113 -150.024 
114 -166.863 
115 81.7436 
116 -40.1579 
ITEM: TIMESTEP
27200
ITEM: NUMBER OF ENTRIES
116
ITEM: BOX BOUNDS pp pp pp
-2.1034440479022237e+01 2.1034440479022237e+01
-1.1245775088204779e+01 1.1245775088204779e+01
-1.1245775088204779e+01 1.1245775088204779e+01
ITEM: ENTRIES index c_dphi
1 -141.128 
2 104.23 
3 -19.9672 
4 137.615 
5 14.1511 
6 -112.06 
7 101.905 
8 106.978 
9 -15.8907 
10 -140.014 
11 -133.738 
12 103.393 
13 -20.7302 
14 -11.1026 
15 -133.971 
16 179.997 
17 52.9959 
18 -60.6743 
19 169.423 
20 55.753 
21 -63.5754 
22 -67.812 
23 178.518 
24 59.1893 
25 170.195 
26 -63.339 
27 57.4281 
28 -178.86 
29 61.6477 
30 -55.1981 
31 96.3266 
32 -141.181 
33 -29.8556 
34 -172.247 
35 -53.0999 
36 72.4973 
37 -116.155 
38 124.089 
39 1.38159 
40 -111.442 
41 125.85 
42 8.31358 
43 10.5449 
44 -112.163 
45 130.301 
46 -177.099 
47 62.3752 
48 -57.3442 
49 -110.356 
50 126.332 
51 8.08566 
52 -115.226 
53 123.369 
54 0.0573555 
55 -29.7741 
56 90.9716 
57 -142.116 
58 96.543 
59 -26.341 
60 -137.741 
61 99.3753 
62 -16.3998 
63 -17.2838 
64 -140.168 
65 104.057 
66 161.118 
67 -79.2439 
68 43.0207 
69 150.646 
70 27.7832 
71 -95.29 
72 -176.418 
73 -58.6418 
74 63.658 
75 -99.2469 
76 141.327 
77 21.9788 
78 -93.6274 
79 147.024 
80 25.7985 
81 25.6407 
82 -93.7077 
83 145.067 
84 96.5769 
85 -31.5149 
86 -142.04 
87 80.9433 
88 -39.1786 
89 -155.026 
90 175.818 
91 57.6357 
92 -63.5762 
93 175.064 
94 53.852 
95 -66.7537 
96 -66.3781 
97 172.41 
98 51.8044 
99 -171.773 
100 -52.589 
101 65.6096 
102 148.133 
103 28.0217 
104 -89.7312 
105 151.041 
106 -91.4769 
107 36.1668 
108 86.3336 
109 -35.8604 
110 -156.318 
111 85.2948 
112 -35.1631 
113 -152.511 
114 -155.002 
115 84.5396 
116 -32.8085 
ITEM: TIMESTEP
27300
ITEM: NUMBER OF ENTRIES
116
ITEM: BOX BOUNDS pp pp pp
-2.1034440479022237e+01 2.1034440479022237e+01
-1.1245775088204779e+01 1.1245775088204779e+01
-1.1245775088204779e+01 1.1245775088204779e+01
ITEM: ENTRIES index c_dphi
1 26.1652 
2 -89.5905 
3 148.066 
4 -177.335 
5 64.8967 
6 -55.7602 
7 93.0494 
8 92.3686 
9 -27.6334 
10 -148.898 
11 -148.969 
12 91.0289 
13 -30.236 
14 -25.6837 
15 -145.686 
16 158.33 
17 37.4418 
18 -82.6399 
19 146.509 
20 26.4268 
21 -92.603 
22 -82.1884 
23 157.73 
24 38.7001 
25 -169.776 
26 -47.0685 
27 73.0471 
28 -170.099 
29 67.8112 
30 -47.6439 
31 84.878 
32 -155.675 
33 -38.7507 
34 -149.805 
35 -34.0821 
36 84.8043 
37 -100.868 
38 137.792 
39 22.0879 
40 -100.96 
41 143.336 
42 20.3801 
43 13.2886 
44 -102.415 
45 134.629 
46 -156.122 
47 86.9462 
48 -37.2345 
49 171.945 
50 55.2237 
51 -68.2433 
52 175.036 
53 56.0674 
54 -60.6538 
55 -6.41504 
56 108.88 
57 -144.378 
58 93.6252 
59 -24.4478 
60 -148.027 
61 93.9002 
62 -26.0296 
63 -24.5168 
64 -142.59 
65 97.4804 
66 155.173 
67 -82.6101 
68 35.3826 
69 109.021 
70 -10.6637 
71 -130.262 
72 -177.068 
73 -46.6981 
74 64.3596 
75 -77.2812 
76 152.137 
77 37.5129 
78 -75.533 
79 169.842 
80 55.0483 
81 39.4235 
82 -75.201 
83 170.005 
84 103.835 
85 -25.002 
86 -140.067 
87 99.451 
88 -22.2793 
89 -138.934 
90 155.416 
91 33.173 
92 -79.2124 
93 151.622 
94 39.2364 
95 -86.1356 
96 -92.2212 
97 155.393 
98 30.0213 
99 171.578 
100 -67.4946 
101 44.1383 
102 174.471 
103 54.6306 
104 -65.7369 
105 -140.403 
106 -22.5012 
107 94.7606 
108 81.2778 
109 -35.4988 
110 -154.838 
111 87.1384 
112 -32.2009 
113 -156.085 
114 -153.584 
115 87.077 
116 -36.8072 
ITEM: TIMESTEP
27400
ITEM: NUMBER OF ENTRIES
116
ITEM: BOX BOUNDS pp pp pp
-2.1034440479022237e+01 2.1034440479022237e+01
-1.1245775088204779e+01 1.1245775088204779e+01
-1.1245775088204779e+01 1.1245775088204779e+01
ITEM: ENTRIES index c_dphi
1 36.0055 
2 -78.9281 
3 157.817 
4 -156.875 
5 87.6799 
6 -32.3556 
7 125.859 
8 118.053 
9 4.10745 
10 -115.235 
11 -121.807 
12 124.248 
13 4.90473 
14 -0.852239 
15 -114.798 
16 -179.133 
17 63.0583 
18 -60.5929 
19 176.989 
20 53.3383 
21 -65.2016 
22 -67.4151 
23 168.934 
24 50.3939 
25 -155.18 
26 -38.5894 
27 85.3887 
28 -172.403 
29 68.6273 
30 -46.3282 
31 88.3192 
32 -147.889 
33 -30.8186 
34 -149.953 
35 -27.9509 
36 90.1069 
37 -90.8167 
38 146.788 
39 29.7906 
40 -96.3208 
41 146.682 
42 26.0744 
43 23.9211 
44 -93.0765 
45 146.316 
46 -156.644 
47 80.0997 
48 -26.7249 
49 151.452 
50 28.7499 
51 -89.4274 
52 147.87 
53 19.9688 
54 -102.733 
55 -28.65 
56 89.6159 
57 -154.796 
58 83.3774 
59 -29.614 
60 -157.518 
61 89.4909 
62 -35.6909 
63 -41.1208 
64 -154.112 
65 80.706 
66 171.589 
67 -71.765 
68 46.37 
69 86.5997 
70 -31.8991 
71 -146.809 
72 -179.454 
73 -57.4145 
74 61.4012 
75 -88.3762 
76 155.968 
77 36.2297 
78 -82.2204 
79 158.041 
80 33.4353 
81 27.4454 
82 -92.293 
83 143.101 
84 111.513 
85 -8.42966 
86 -127.729 
87 103.01 
88 -21.8401 
89 -138.246 
90 154.725 
91 35.0866 
92 -87.2992 
93 162.842 
94 40.4564 
95 -77.5197 
96 -79.6992 
97 157.915 
98 39.939 
99 -178.464 
100 -58.1843 
101 62.5575 
102 176.009 
103 55.6563 
104 -62.0622 
105 -40.5683 
106 80.6322 
107 -167.743 
108 56.9978 
109 -58.9943 
110 -177.977 
111 62.9034 
112 -56.0789 
113 178.895 
114 178.005 
115 59.0225 
116 -66.0032 
ITEM: TIMESTEP
27500
ITEM: NUMBER OF ENTRIES
116
ITEM: BOX BOUNDS pp pp pp
-2.1034440479022237e+01 2.1034440479022237e+01
-1.1245775088204779e+01 1.1245775088204779e+01
-1.1245775088204779e+01 1.1245775088204779e+01
ITEM: ENTRIES index c_dphi
1 -85.2146 
2 155.597 
3 38.2778 
4 -143.176 
5 89.1264 
6 -24.6715 
7 168.366 
8 173.318 
9 56.2232 
10 -71.3046 
11 -63.8636 
12 179.041 
13 51.5136 
14 52.9883 
15 -64.1067 
16 -167.157 
17 57.2072 
18 -55.718 
19 -179.944 
20 67.1311 
21 -44.3074 
22 -68.8202 
23 178.255 
24 66.816 
25 -159.291 
26 -25.2093 
27 83.5455 
28 -171.243 
29 72.835 
30 -52.1809 
31 141.561 
32 -97.7883 
33 15.7346 
34 158.334 
35 -79.5813 
36 39.9818 
37 -153.972 
38 87.2223 
39 -30.858 
40 -147.364 
41 94.5561 
42 -28.5575 
43 -34.4877 
44 -152.568 
45 84.3184 
46 -122.727 
47 113.723 
48 0.348039 
49 134.211 
50 14.2395 
51 -107.047 
52 132.981 
53 7.70223 
54 -112.269 
55 -28.9033 
56 91.2891 
57 -177.794 
58 61.1768 
59 -57.5043 
60 178.894 
61 60.2131 
62 -60.0771 
63 -61.0422 
64 -179.723 
65 59.9866 
66 167.128 
67 -76.5095 
68 44.217 
69 90.722 
70 -31.5505 
71 -149.415 
72 171.994 
73 -74.7918 
74 46.191 
75 -95.6612 
76 151.225 
77 30.6769 
78 -86.8122 
79 152.64 
80 26.3015 
81 33.0774 
82 -87.4708 
83 146.191 
84 158.747 
85 40.3197 
86 -82.5744 
87 146.265 
88 24.2143 
89 -95.1142 
90 134.7 
91 14.158 
92 -101.885 
93 137.533 
94 21.4902 
95 -101.925 
96 -103.662 
97 140.295 
98 16.8794 
99 -163.851 
100 -42.4072 
101 73.0131 
102 -157.444 
103 84.849 
104 -30.5091 
105 -65.2253 
106 57.191 
107 170.303 
108 18.5664 
109 -104.821 
110 146.133 
111 9.01075 
112 -100.035 
113 132.398 
114 126.191 
115 17.1451 
116 -110.421 
ITEM: TIMESTEP
27600
ITEM: NUMBER OF ENTRIES
116
ITEM: BOX BOUNDS pp pp pp
-2.1034440479022237e+01 2.1034440479022237e+01
-1.1245775088204779e+01 1.1245775088204779e+01
-1.1245775088204779e+01 1.1245775088204779e+01
ITEM: ENTRIES index c_dphi
1 -87.3015 
2 156.627 
3 39.4223 
4 -166.651 
5 72.5099 
6 -45.3001 
7 -155.309 
8 -154.637 
9 89.1748 
10 -36.2003 
11 -38.0797 
12 -154.268 
13 80.3567 
14 86.2549 
15 -29.9335 
16 164.204 
17 40.6363 
18 -76.5683 
19 157.179 
20 39.974 
21 -79.2533 
22 -87.4356 
23 155.36 
24 36.1325 
25 -156.965 
26 -32.288 
27 79.5078 
28 -177.402 
29 61.2714 
30 -53.5874 
31 -160.312 
32 -42.2063 
33 75.4448 
34 -172.476 
35 -50.5597 
36 67.4211 
37 179.569 
38 53.7142 
39 -60.9702 
40 175.179 
41 60.4944 
42 -58.9666 
43 -67.5436 
44 177.772 
45 58.311 
46 -128.851 
47 106.471 
48 -7.9133 
49 93.9426 
50 -14.9619 
51 -141.784 
52 109.312 
53 -19.5973 
54 -128.502 
55 -79.3109 
56 33.6514 
57 146.624 
58 26.8316 
59 -92.787 
60 150.571 
61 30.9526 
62 -89.6364 
63 -86.8302 
64 153.551 
65 32.9623 
66 136.902 
67 -109.406 
68 11.6764 
69 102.781 
70 -16.2066 
71 -136.553 
72 174.988 
73 -66.6616 
74 54.4692 
75 -83.6116 
76 156.102 
77 39.0681 
78 -84.7537 
79 158.213 
80 35.5331 
81 34.2735 
82 -82.76 
83 154.56 
84 -168.495 
85 66.4397 
86 -49.8646 
87 -179.456 
88 65.1423 
89 -57.0861 
90 163.38 
91 43.5252 
92 -73.7414 
93 161.672 
94 44.4055 
95 -78.4733 
96 -81.7936 
97 160.94 
98 38.0611 
99 -160.884 
100 -40.9016 
101 74.6452 
102 171.544 
103 52.8715 
104 -64.7514 
105 -92.8171 
106 18.1411 
107 126.676 
108 80.8702 
109 -27.3047 
110 -142.776 
111 88.1395 
112 -27.3321 
113 -163.686 
114 -153.527 
115 91.0014 
116 -45.3521 
ITEM: TIMESTEP
27700
ITEM: NUMBER OF ENTRIES
116
ITEM: BOX BOUNDS pp pp pp
-2.1034440479022237e+01 2.1034440479022237e+01
-1.1245775088204779e+01 1.1245775088204779e+01
-1.1245775088204779e+01 1.1245775088204779e+01
ITEM: ENTRIES index c_dphi
1 79.6833 
2 -37.0274 
3 -154.079 
4 -157.51 
5 90.7131 
6 -36.3716 
7 -129.753 
8 -135.698 
9 106.579 
10 -10.4265 
11 -17.6951 
12 -135.417 
13 107.577 
14 104.975 
15 -12.7475 
16 161.744 
17 38.8149 
18 -82.4308 
19 159.234 
20 37.9882 
21 -77.8367 
22 -93.129 
23 145.625 
24 29.8005 
25 178.143 
26 -57.3446 
27 61.2098 
28 173.228 
29 48.7838 
30 -62.0615 
31 -168.151 
32 -45.6822 
33 73.5231 
34 -158.161 
35 -37.3328 
36 80.9609 
37 -150.897 
38 89.2616 
39 -32.7229 
40 -153.557 
41 84.4589 
42 -33.7153 
43 -34.9084 
44 -156.893 
45 84.9329 
46 -129.269 
47 109.661 
48 -18.0526 
49 97.7672 
50 -29.8484 
51 -139.901 
52 92.4836 
53 -21.5369 
54 -149.152 
55 -57.7208 
56 64.8714 
57 141.988 
58 20.051 
59 -97.9368 
60 139.535 
61 21.5471 
62 -98.5284 
63 -99.7759 
64 142.236 
65 22.1608 
66 145.774 
67 -96.1429 
68 24.0174 
69 173.412 
70 49.3076 
71 -67.0642 
72 166.673 
73 -72.0779 
74 46.8045 
75 167.425 
76 46.2151 
77 -74.5663 
78 173.353 
79 52.5716 
80 -65.4367 
81 -68.0381 
82 171.181 
83 53.1722 
84 161.24 
85 32.8176 
86 -81.2676 
87 -178.281 
88 60.9276 
89 -55.1669 
90 -178.418 
91 58.2626 
92 -60.0386 
93 176.511 
94 58.2098 
95 -60.1699 
96 -62.8174 
97 178.881 
98 60.5016 
99 -112.767 
100 8.91182 
101 128.846 
102 173.751 
103 45.1648 
104 -71.6614 
105 -156.358 
106 -39.3728 
107 67.6193 
108 60.0893 
109 -55.9802 
110 -165.107 
111 67.6211 
112 -41.5055 
113 -176.309 
114 -174.006 
115 76.8672 
116 -57.9367 
ITEM: TIMESTEP
27800
ITEM: NUMBER OF ENTRIES
116
ITEM: BOX BOUNDS pp pp pp
-2.1034440479022237e+01 2.1034440479022237e+01
-1.1245775088204779e+01 1.1245775088204779e+01
-1.1245775088204779e+01 1.1245775088204779e+01
ITEM: ENTRIES index c_dphi
1 157.457 
2 37.4947 
3 -82.6392 
4 -170.385 
5 67.9728 
6 -51.0159 
7 -122.35 
8 -119.533 
9 117.242 
10 0.747588 
11 -8.60393 
12 -131.828 
13 111.677 
14 117.369 
15 -5.85503 
16 166.497 
17 46.7159 
18 -70.9942 
19 164.037 
20 46.3272 
21 -76.1813 
22 -79.076 
23 163.214 
24 40.7054 
25 -167.798 
26 -48.1026 
27 70.6211 
28 -117.425 
29 122.338 
30 10.654 
31 168.61 
32 -69.9054 
33 48.4464 
34 -142.952 
35 -21.3938 
36 100.854 
37 -134.201 
38 104.92 
39 -18.1247 
40 -130.985 
41 105.971 
42 -10.1056 
43 -12.3008 
44 -135.345 
45 108.579 
46 -172.053 
47 67.0808 
48 -49.1859 
49 59.3214 
50 -64.5633 
51 174.586 
52 50.701 
53 -66.9483 
54 169.167 
55 -49.9321 
56 67.4923 
57 -175.427 
58 62.3617 
59 -59.9582 
60 179.135 
61 56.8152 
62 -58.6532 
63 -60.0178 
64 177.662 
65 62.1939 
66 -160.655 
67 -42.8855 
68 82.0123 
69 171.632 
70 55.1859 
71 -68.4863 
72 163.007 
73 -78.0556 
74 36.0799 
75 162.024 
76 52.0161 
77 -67.6884 
78 168.28 
79 48.5758 
80 -81.7115 
81 -70.0964 
82 170.199 
83 39.9117 
84 173.964 
85 57.2777 
86 -60.7085 
87 -177.202 
88 59.5543 
89 -60.4962 
90 165.901 
91 47.4167 
92 -75.5475 
93 171.941 
94 48.9764 
95 -69.5752 
96 -66.3373 
97 170.698 
98 52.1468 
99 -171.778 
100 -52.9716 
101 70.7162 
102 165.837 
103 39.5846 
104 -68.2818 
105 -99.2616 
106 19.6955 
107 134.253 
108 66.8053 
109 -51.9066 
110 -161.58 
111 72.2589 
112 -37.4143 
113 -169.029 
114 -178.946 
115 71.3808 
116 -60.2341 
ITEM: TIMESTEP
27900
ITEM: NUMBER OF ENTRIES
116
ITEM: BOX BOUNDS pp pp pp
-2.1034440479022237e+01 2.1034440479022237e+01
-1.1245775088204779e+01 1.1245775088204779e+01
-1.1245775088204779e+01 1.1245775088204779e+01
ITEM: ENTRIES index c_dphi
1 -158.992 
2 78.5288 
3 -41.9958 
4 -173.027 
5 61.0657 
6 -53.7487 
7 -116.913 
8 -121.642 
9 123.547 
10 1.69172 
11 0.653075 
12 -114.158 
13 123.986 
14 119.753 
15 4.94202 
16 -166.368 
17 71.4009 
18 -49.0864 
19 -170.437 
20 69.0754 
21 -48.2062 
22 -42.8941 
23 -163.381 
24 79.3371 
25 -133.165 
26 -13.6342 
27 109.049 
28 -112.962 
29 126.592 
30 6.54201 
31 -132.354 
32 -10.573 
33 102.2 
34 171.625 
35 -68.3562 
36 56.5374 
37 157.899 
38 32.2348 
39 -89.6334 
40 162.411 
41 40.5426 
42 -71.9249 
43 -85.6372 
44 152.495 
45 40.027 
46 168.436 
47 48.171 
48 -67.2515 
49 52.4899 
50 -55.541 
51 172.497 
52 64.4662 
53 -69.5961 
54 -177.627 
55 -63.8227 
56 46.2357 
57 -145.176 
58 94.2344 
59 -20.3902 
60 -140.931 
61 104.445 
62 -20.3411 
63 -29.9418 
64 -144.566 
65 90.6479 
66 -167.727 
67 -47.8343 
68 67.9903 
69 147.002 
70 26.3843 
71 -89.5998 
72 165.652 
73 -75.0014 
74 44.9052 
75 -112.694 
76 126.94 
77 7.21075 
78 -107.301 
79 132.97 
80 13.0647 
81 10.4311 
82 -109.299 
83 130.796 
84 -161.201 