LAMMPS data file via write_data, version 22 Jul 2025, timestep = 50000, units = metal

720 atoms
2 atom types

-22.044714628160662 22.044714628160662 xlo xhi
-8.7098484784383 8.7098484784383 ylo yhi
-8.890165269382058 8.890165269382058 zlo zhi

Atom Type Labels

1 Si
2 O

Masses

1 28.0855
2 15.9994

Atoms # full

74 0 1 0 -19.295670770916704 -7.043925598527681 -6.733483204244021 0 0 0
269 0 2 0 -20.527791148581 -3.5379981426188243 -3.603767695955229 0 0 0
594 0 2 0 -20.710517293675295 -6.289951011978287 -6.804710111690901 0 0 0
602 0 2 0 -21.901787346573713 -3.7482558692347894 -8.377883911231628 0 0 0
197 0 1 0 -19.308761141647835 -7.541892182622663 -3.6095419333380616 0 1 0
645 0 2 0 -18.056556532475202 -6.072515440220626 -6.823018325481148 0 0 0
613 0 2 0 -17.790197078642464 -4.277277358866311 -5.04393938412003 0 0 0
226 0 1 0 -16.91885283538761 -5.353680579487464 -5.916402477650941 0 0 0
6 0 1 0 -16.382908860154906 -6.767850565423926 -3.355702041990067 0 0 0
689 0 2 0 -19.16809092892544 -7.681431614996188 -5.20120279030471 0 0 0
505 0 2 0 -16.198435725639435 -6.323698803197765 -4.823324829911054 0 0 0
383 0 2 0 -19.12145421766514 -8.209553880142312 -7.8059721671448665 0 0 1
570 0 2 0 -19.81079102857745 -6.028910795100947 -3.1965305107144824 0 0 0
318 0 2 0 -16.56056009434428 -3.148899501747623 -3.1135027306689036 0 0 0
170 0 1 0 -20.752864155066487 -4.842344520425833 -2.6677428032614636 0 0 0
423 0 2 0 -15.831577161035707 -4.528298044567154 -6.7619619119294905 0 0 0
59 0 1 0 -17.26235029988839 -2.809431523225764 -4.483353211368008 0 0 0
241 0 2 0 -20.347361219592123 -8.702471553152446 -3.08846373986801 0 1 0
322 0 2 0 -17.700223270714908 -7.585152830149549 -3.1102432979173504 0 1 0
37 0 1 0 -15.635515026586312 -2.9178618058727137 -7.000457871274882 0 0 0
366 0 2 0 -6.590712656792183 -5.834980598033383 -3.8373517712013077 0 0 0
587 0 2 0 -5.13590800125224 -7.487969937563346 -7.199818017202391 0 0 1
685 0 2 0 -3.9741872741797053 -4.297497294933361 -5.894706346578711 0 0 0
199 0 1 0 -3.867845565854264 -3.896593876607737 -7.498387259445984 0 0 1
657 0 2 0 -4.809841150246182 -4.9974744647424005 -8.288517487944892 0 0 1
159 0 1 0 -4.555369529529834 -6.575932691511879 -8.445027851562745 0 0 1
407 0 2 0 -3.872306733737396 -5.577129226659568 -3.5265290368139732 0 0 0
127 0 1 0 -3.1106415545890513 -5.224043399285308 -4.884544455822306 0 0 0
332 0 2 0 -2.950923444093135 -6.903244988256929 -8.3060740398478 0 0 0
544 0 2 0 -2.687631181599155 -6.57557486823648 -5.6842528906800505 0 0 0
482 0 2 0 -1.791215620725911 -4.275301874484251 -4.838990851004826 0 0 0
69 0 1 0 -1.9187107828722354 -7.139223881819275 -7.0326707259793615 0 1 0
636 0 2 0 0.46739018633164875 -6.66792609509494 -4.7440650642660165 0 0 0
148 0 1 0 0.8649486121788037 -6.430687429890499 -6.29264751643247 0 0 1
402 0 2 0 -0.5291231810546293 -6.373374942367496 -7.057922029097552 0 0 0
266 0 2 0 1.717136813212857 -7.416256430173094 -7.233591535698993 0 0 0
333 0 2 0 1.4984275220211565 -4.957378831447629 -6.402856526559846 0 0 0
115 0 1 0 2.9535414740082473 -4.353683171387157 -5.9219305243962195 0 0 0
265 0 2 0 2.6184839586404323 -3.2701599325591584 -4.791824225542301 0 0 0
483 0 2 0 -2.277162915144398 -4.263014717111793 -8.068820068880342 0 0 1
108 0 1 0 2.0537469729237863 -8.402373566420867 -8.476949205880322 0 1 1
431 0 2 0 -1.6995906516913024 -8.703798963086829 -6.992127509988866 0 0 0
118 0 1 0 -1.3231481717170723 -3.7022765413009635 8.6348837004499 0 0 0
385 0 2 0 3.6407194428345306 -5.602440446994217 -5.226150373921314 0 0 0
610 0 2 0 3.6350983182697014 -3.63555947899805 -7.204814945681623 0 0 0
75 0 1 0 4.810485798113088 -6.3230758389229935 -4.407382116856481 0 0 0
225 0 1 0 7.219320501594904 -5.078249148681289 -5.487682896988653 0 0 0
443 0 2 0 4.519488593896423 -7.761146527978524 -3.8069172085275462 0 0 0
659 0 2 0 6.0284512089359765 -6.182363946544024 -5.426853433807589 0 0 0
677 0 2 0 7.2995898000810975 -4.592210541541572 -7.090838806576078 0 0 0
319 0 2 0 6.96974450288678 -3.793580837550257 -4.482356235310089 0 0 0
94 0 1 0 7.9218225338203005 -3.929492736195516 -8.465485366858747 0 0 1
138 0 1 0 5.018359706028065 -7.766738403389579 -8.60371451651174 0 0 0
560 0 2 0 8.51210047529123 -5.7975002722968 -5.0233101568277885 0 0 0
450 0 2 0 3.6555451946128343 -8.511978719301332 -8.537804995282048 0 0 1
710 0 2 0 9.276893974065196 -7.165984123992999 -7.0052818263392895 0 0 0
79 0 1 0 9.562032344483537 -8.146105704639133 -8.296668515043784 0 1 0
54 0 1 0 9.83546028905604 -6.151031671901023 -5.832639333877389 0 0 0
128 0 1 0 11.04006138298849 -3.428285572413616 -6.004457189745905 0 0 0
130 0 1 0 12.855590799100185 -4.435888964020198 -8.107485200546268 0 0 0
480 0 2 0 11.202161915840698 -6.569502375541727 -5.046790761010312 0 0 0
623 0 2 0 10.150806103209476 -4.674269134683061 -6.486085201346629 0 0 0
189 0 1 0 12.465153396751276 -7.536688790774117 -8.505811221528509 0 1 1
569 0 2 0 12.247567467393367 -5.954246990154424 -8.113098563182087 0 0 1
653 0 2 0 12.48159117714372 -3.6002873980839007 -6.701848436156134 0 0 0
350 0 2 0 14.529362941617464 -6.050024084286682 -6.213280349823765 0 0 0
4 0 1 0 14.890497508022861 -7.320166118014007 -7.039510661146581 0 1 0
463 0 2 0 13.615592137716497 -8.159700224201 -7.574098706316591 0 0 1
473 0 2 0 11.128619259929508 -8.410257089424292 -8.269190595995436 0 1 0
508 0 2 0 14.473931104348509 -7.535795939672313 -3.328738702963174 0 0 0
417 0 2 0 15.159967191966565 -4.906683699310191 -3.3864835170830614 0 0 0
522 0 2 0 13.236718052229598 -3.146327921762488 -3.2583332236674902 0 0 0
630 0 2 0 15.524689965982759 -6.726033668388465 -8.512061838183785 0 0 1
424 0 2 0 14.331271455454164 -4.3185442943011685 -8.717904433447478 0 0 0
191 0 1 0 15.733282137556643 -6.410779334626694 -3.3796762794481023 0 0 0
345 0 2 0 21.83544807646011 -5.262056872020857 -3.1325479684015534 -1 0 0
105 0 1 0 21.780420429012786 -6.34111515038136 -6.636927099271252 -1 0 0
419 0 2 0 15.966916584369756 -8.262861657201636 -6.291691540024398 0 0 0
214 0 1 0 21.097342510101498 -4.467802837819066 -4.2654301956393565 0 0 0
654 0 2 0 21.207598237272144 -5.176476150765428 -5.670048412790241 0 0 0
374 0 2 0 21.348639727454973 -7.7942155550053664 -6.1233578031145095 -1 0 1
691 0 2 0 21.14643149307674 -6.0421523696649 -8.06013920078232 -1 0 0
386 0 2 0 18.437594145220856 -7.9449404909765775 -6.566098303096904 -1 0 0
126 0 1 0 17.28158412509925 -8.077540454773247 -5.409826477923297 0 0 0
360 0 2 0 19.48502636402427 -4.061562019843834 -8.502926937129622 0 0 0
663 0 2 0 16.90982240562628 -6.80106677655859 -4.465472601851181 0 0 0
359 0 2 0 20.607565274790446 -3.004262856858059 -3.907634578881078 -1 0 0
249 0 2 0 17.81509227859013 -2.6902243875982474 -5.267939078765469 0 0 0
536 0 2 0 17.624590320985966 -3.704388846441974 -2.702704184723837 0 0 0
581 0 2 0 -16.54475569918599 -2.636588810579312 -8.297477828136293 0 0 0
606 0 2 0 -18.52612060589874 -1.9224322563110707 -4.090690514625289 0 0 0
195 0 1 0 -20.11517747029118 -2.0559749091358297 -4.084040583774084 0 0 0
331 0 2 0 -20.648961082955807 -1.9223288843078636 -5.6698412368927995 0 0 0
474 0 2 0 -21.148154590853306 -1.2892785501749255 -8.07813299979973 0 0 0
236 0 1 0 -20.26421021774437 -0.810066078372512 -6.75306516511635 0 0 0
558 0 2 0 -20.72075227143176 -0.7261522480770726 -3.3689664213193478 0 0 0
624 0 2 0 -21.00496026590984 0.5840846826778581 -6.401287321962451 0 0 0
337 0 2 0 -18.730785230612334 -0.6243168582134064 -6.982569054223157 0 0 0
530 0 2 0 -16.244933972500203 -2.274719425503955 -5.601255174159898 0 0 0
703 0 2 0 -14.12506394812932 -2.480915934878725 -7.173406620124815 0 0 0
539 0 2 0 -3.529155003236589 1.327362596482379 -6.228621060067304 0 0 0
284 0 2 0 -3.8875201717529677 -2.334292191695808 -7.894434962339924 0 0 1
149 0 1 0 -3.2677788701928385 1.6110096794300013 -7.8266033062489955 0 0 1
220 0 1 0 -4.8138647335112985 1.5800725703673084 -5.276680375923571 0 0 0
644 0 2 0 -6.046428754983188 1.465126245392236 -6.273745627716696 0 0 0
16 0 1 0 -6.0210944775313 2.434995888290336 -7.767793807270745 0 0 1
416 0 2 0 -4.77491082609523 1.769488340583548 -8.529066601625454 0 0 1
446 0 2 0 -4.87579962733972 0.8117057003388606 -3.863306944820452 0 0 0
394 0 2 0 -2.6964841484301303 0.3015023671065329 -8.672582026709856 0 0 0
27 0 1 0 -2.577843218508754 -1.2439291929819252 -8.29979857763206 0 0 1
31 0 1 0 -1.2839740180719588 -2.80322176426877 -4.515401145497553 0 0 0
400 0 2 0 -1.8255979125190755 -1.2774863454736227 -6.857891603080157 0 0 0
421 0 2 0 -0.24923833230746695 -1.8846237139648485 -5.178932478496469 0 0 0
154 0 1 0 -0.31397998613325484 -0.9047330487902769 -6.450283869277433 0 0 0
401 0 2 0 -0.08313011345547494 0.7134192021319485 -6.289742882743175 0 0 0
690 0 2 0 0.6375315480578045 -1.3590294578875577 -7.646783489875823 0 0 0
215 0 1 0 0.9884213505545851 1.913343416387855 -6.317893040879954 0 0 0
406 0 2 0 2.4668580070438786 1.3326408277429618 -6.603996265995301 0 0 0
513 0 2 0 2.8283276744475216 -0.306623024906596 -8.49194180422517 0 0 0
437 0 2 0 1.0709396195337817 2.5543734895963315 -4.83501139858545 0 0 0
330 0 2 0 2.070845759809586 0.5622262410152814 -3.4606078377511817 0 0 0
90 0 1 0 1.7302155934600947 2.0977477371077917 -3.39721287291304 0 0 0
163 0 1 0 1.4144996096320206 -0.9499496559499381 8.827214491620795 0 0 -1
33 0 1 0 4.388570769004936 -2.77598451345314 -8.296536620414209 0 0 1
41 0 1 0 3.6345313846538794 0.766085143184565 -7.5628122073950985 0 0 0
420 0 2 0 4.711143667105578 0.12316757832606307 -6.526037342318383 0 0 0
113 0 1 0 6.0138651549047 -0.7554246380004237 -6.7950212574233575 0 0 0
185 0 1 0 7.624187625552846 1.2080786043951104 -8.41944792117013 0 0 0
352 0 2 0 7.223252763796182 0.2709846271949399 -7.256036981573035 0 0 0
572 0 2 0 6.593435700635759 -1.5001861042117168 -5.545307096613925 0 0 0
647 0 2 0 5.577862106947407 -1.9033049756372362 -7.825835372162089 0 0 0
87 0 1 0 6.745475255597793 -2.181648256861764 -4.107424373687152 0 0 0
167 0 1 0 7.028568485315997 2.5339769821314864 -4.29262553000822 0 0 0
453 0 2 0 8.190160618588322 2.6220729666856712 -8.150016228831827 0 0 1
248 0 2 0 8.014655906885977 -1.412748028966785 -3.4750002838517795 0 0 0
409 0 2 0 8.27136689359832 -2.3426505332582623 -8.086614856296066 0 0 0
697 0 2 0 7.790917191556886 1.1379953491263048 -4.265653787527727 0 0 0
208 0 1 0 9.298020174213725 -1.3784307104456328 -7.4329113424406605 0 0 0
415 0 2 0 4.354443460951639 1.9683892838380412 -8.459141687148335 0 0 1
308 0 2 0 10.876917501601632 -3.2879197472857777 -4.438533702464645 0 0 0
57 0 1 0 11.607039215317087 -2.8992746558264066 -3.1140816217703127 0 0 0
438 0 2 0 9.77915866127519 0.026204870079881815 -7.972968272468839 0 0 1
101 0 1 0 12.730849219633932 0.5620936892936772 -5.391981804645738 0 0 0
183 0 1 0 11.127173140408352 0.9771158374215823 -7.978369296200805 0 0 0
430 0 2 0 11.444519540548221 0.5159985418617659 -4.3770836657385646 0 0 0
564 0 2 0 12.222740129519991 0.5179415034931392 -6.909662758690035 0 0 0
595 0 2 0 10.337090840584011 -2.0389906840565217 -6.526533377757825 0 0 0
573 0 2 0 13.593545334553184 1.8868632023887066 -5.114918852969222 0 0 0
551 0 2 0 10.674674038898551 2.442341608158591 -7.5870831862246355 0 0 0
339 0 2 0 13.689117014743296 -0.6139760489859007 -4.831047298889962 0 0 0
207 0 1 0 14.994134512083022 2.0875438638884916 -4.329668007443559 0 0 0
99 0 1 0 15.249830499458348 -0.8241467137514089 -4.801107065849342 0 0 0
504 0 2 0 15.828185937002566 0.6875106550731669 -4.510356580848471 0 0 0
717 0 2 0 14.618436979140668 3.0495261843452486 -7.698001281168883 0 0 0
458 0 2 0 14.626615480287796 2.1788956086855666 -2.7695788874697356 0 0 0
252 0 2 0 17.281550546340704 -2.746534212963268 -7.881031763864099 0 0 0
140 0 1 0 21.92584275778472 0.12487010947967114 -3.1967840016877513 -1 0 0
56 0 1 0 21.5303742685851 1.0036142192850015 -6.10222156753514 0 0 0
103 0 1 0 17.39115634087282 -2.4784891786361936 -3.7232608695923317 0 0 0
707 0 2 0 21.273994065965795 0.3575407615704478 -4.687748130104821 -1 0 0
370 0 2 0 21.37021962559662 2.613987008415151 -6.218500315649138 -1 0 0
531 0 2 0 20.724979951322638 0.19529793890504266 -7.409276511389575 0 0 0
97 0 1 0 17.281430509979174 -1.8852839057453812 -6.536356901132223 0 0 0
203 0 1 0 19.094660593046925 0.34921485487142157 -7.725335083007654 0 0 0
320 0 2 0 18.23838069175617 -0.5882967931767489 -6.752057662691556 0 0 0
608 0 2 0 15.926643029329725 -1.8242875330558075 -3.7553777041626466 0 0 0
718 0 2 0 15.815583944116895 -1.3399208995766294 -6.220978774356315 0 0 0
538 0 2 0 18.941135868580815 2.0519748643123332 -4.423354581744185 0 0 0
619 0 2 0 18.89920414573622 1.9599992847771759 -7.821018388451767 0 0 1
591 0 2 0 18.54625746389287 -1.4777856122478044 -3.1385479728635723 -1 0 0
172 0 1 0 19.984695927668817 -2.0492199880527995 -2.6966630966235687 -1 0 0
625 0 2 0 -21.581570517214388 3.5364151696021224 -4.06942091673961 0 0 0
485 0 2 0 -21.206421685326976 4.891927684198684 -6.270383576358144 0 0 0
55 0 1 0 -20.186261977225257 6.2645743421773386 -6.19124354585303 0 0 0
368 0 2 0 -21.18176085874107 7.495551301837377 -5.954142128812474 0 0 0
568 0 2 0 -19.429990293217408 6.647389375997827 -7.602911834792529 0 0 0
313 0 2 0 -19.21457425967886 6.075770734738764 -4.965361881401089 0 0 0
641 0 2 0 -9.37829310137322 4.3670844419931765 8.65087592014612 0 0 0
454 0 2 0 -10.457859890114623 4.627172826095876 -4.263382087965445 0 -1 0
277 0 2 0 -7.4524916088879305 2.8370384535367297 -8.221940839975417 0 0 1
341 0 2 0 -9.054083217702448 3.9001091515250543 -6.5250387752480075 0 0 0
219 0 1 0 -9.014193978031773 4.6589498707937 -4.963075373657915 0 0 0
173 0 1 0 -4.875441823992336 8.376621200920045 -6.772566743352999 0 0 1
267 0 2 0 -4.067728872552948 8.212005614141365 -5.319758774284341 0 0 0
514 0 2 0 -6.356890723081534 7.762225989958438 -6.762505731356349 0 0 0
377 0 2 0 -3.8254492068255566 7.6854765109502345 -7.808237671285539 0 0 1
708 0 2 0 -8.330417996835537 6.160518005660178 -5.364409010767021 0 0 0
562 0 2 0 -7.45144031040431 5.5507537756998016 -7.662885118644088 0 0 1
89 0 1 0 -7.001289569253837 6.333509203126411 -6.300145721507937 0 0 1
520 0 2 0 -4.913254480596851 3.1476127901721895 -4.819687068103963 0 0 0
302 0 2 0 -5.830056538487376 5.651175352446193 -5.526783889769777 0 0 0
42 0 1 0 -4.939762808497537 4.385484405018344 -5.790898885242244 0 0 0
279 0 2 0 -3.4072847887902924 4.823626810582319 -5.999953763929639 0 0 0
439 0 2 0 -5.377901817496934 3.831076587826722 -7.211754501581494 0 0 1
188 0 1 0 -8.340630482469006 4.22531796396661 -7.922303121954845 0 0 1
304 0 2 0 -3.941801537623146 6.3359395973471635 -3.4426241580872485 0 0 0
489 0 2 0 -7.8882761989094465 3.959198432907824 -4.042041678254305 0 0 0
135 0 1 0 -3.156789438536933 7.5998540883410755 -4.160303014136009 0 0 0
398 0 2 0 -2.435518603306086 3.1011666672777594 -7.743979357106285 0 0 1
120 0 1 0 -2.0753737480048073 4.470388140690655 -6.906940063577815 0 0 0
218 0 1 0 -2.2293262424424647 7.49346709487175 -7.861057790635172 0 0 0
632 0 2 0 -1.920634807694622 5.872245246760713 -7.72135704163136 0 0 0
664 0 2 0 -1.788200258534161 6.733818270447868 -4.522542734022717 0 0 0
346 0 2 0 -1.0850370699133727 4.406044333105102 -5.6631514771413105 0 0 0
233 0 1 0 -1.4468032848772054 5.196741816164598 -4.399998612141583 0 0 0
293 0 2 0 0.8052806465793871 3.0180806335101202 -7.509347246273716 0 0 0
43 0 1 0 1.441790706098132 4.394068000865479 -8.024335034909425 0 0 0
704 0 2 0 1.2179085629305462 7.680040638490077 -8.388542513827753 0 -1 1
276 0 2 0 1.7081524410479716 5.293824212246127 -6.729829906661225 0 0 0
283 0 2 0 2.462757424785501 5.309871926101225 -4.092162244657387 0 0 0
205 0 1 0 2.767756072606435 5.826408352333013 -5.63736859315799 0 0 0
545 0 2 0 2.778600024248828 4.03880515650563 -8.855136172735117 0 0 0
604 0 2 0 2.9114776996354372 7.423731841645935 -5.613659117275051 0 -1 0
614 0 2 0 0.4812249776671784 5.260386126603336 8.767528776956174 0 0 0
264 0 2 0 -1.2752714488410746 7.583434197383578 8.559430920539178 0 0 0
671 0 2 0 6.224020934697133 8.699449427145169 -8.219476942864167 0 -1 0
628 0 2 0 5.915622027294663 2.9743788945766987 -5.437070030681338 0 0 0
699 0 2 0 4.1460194890934865 5.091844897306881 -6.062620851141469 0 0 0
131 0 1 0 5.456722002966895 4.626377151854122 -5.29592728045852 0 0 0
521 0 2 0 6.825188107964511 5.325170514395754 -5.716025727964192 0 0 0
559 0 2 0 4.9213038708457475 4.6912768751829255 -3.7602963623153975 0 0 0
609 0 2 0 8.658959442338915 7.895386889912331 -8.405645467547927 0 -1 0
257 0 2 0 8.177261789172597 3.6746187256436453 -4.4130218415474545 0 0 0
216 0 1 0 8.353887916388302 4.9725621403626565 -5.293137256442906 0 0 0
303 0 2 0 9.212737423504006 6.195317204802679 -4.654598964027706 0 0 0
428 0 2 0 9.288854138025759 4.450932433237131 -6.582023941865627 0 0 0
5 0 1 0 9.543032208935085 3.5169929626042116 -7.853856417019391 0 0 0
253 0 2 0 15.530757180715327 3.3812276315679455 -5.162216412980688 0 0 0
351 0 2 0 10.991279541934638 7.985030426385311 -3.8026392716778386 0 -1 0
63 0 1 0 12.653115740549474 5.969400750862274 -6.8903911868331145 0 0 0
96 0 1 0 10.787247961279114 6.634639257209702 -4.604481092258647 0 0 0
488 0 2 0 12.46315419587755 5.8332490862343676 -8.395733330514586 0 0 0
712 0 2 0 11.565413117115149 6.629581125025867 -5.9930777719759165 0 0 0
441 0 2 0 13.640306028038097 4.991357179972619 -6.177442549423914 0 0 0
640 0 2 0 11.447366551119003 5.464420549109816 -3.6617118488171423 0 0 0
237 0 1 0 14.573822317759202 3.7696400128016254 -6.306999191628518 0 0 0
557 0 2 0 15.532792533919 5.518997849151525 -3.8502663920867413 0 0 0
53 0 1 0 21.89192672609836 3.9497678139972123 -5.478832424777401 -1 0 0
323 0 2 0 21.980538028329136 6.558245055831067 -3.461680938883663 -1 0 0
47 0 1 0 19.18280970820861 3.3788605077533393 -3.650012855163521 0 0 0
122 0 1 0 21.443178296363783 8.01679316848492 -6.278740931927362 -1 0 0
422 0 2 0 21.004398596384497 7.497050798122931 -7.752374420231672 -1 0 0
714 0 2 0 20.590129701517817 4.880482537363866 -5.018990252936908 -1 0 0
650 0 2 0 20.362954825748794 7.406430335394592 -5.270049204327623 -1 0 0
139 0 1 0 20.507487861925462 6.285238961928961 -4.148547475220446 0 0 0
288 0 2 0 17.906827310064592 4.33552561944059 -3.970756808102911 0 0 0
465 0 2 0 17.55438885596685 8.009989462212967 -4.531121633853802 0 -1 0
50 0 1 0 17.384520920994383 5.648295843178186 -7.738714123355116 0 0 0
144 0 1 0 18.781291447294358 8.521734184168164 -7.771755496947781 0 0 0
232 0 1 0 16.551932110007392 4.636430766599625 -4.774299860806329 0 0 0
343 0 2 0 18.189530167055537 7.049677173743742 -7.729562093075008 0 0 0
556 0 2 0 16.788340749434838 5.212006560850686 -6.28663269595527 0 0 0
467 0 2 0 18.27444247736439 4.362914882184999 -8.32927534077516 0 0 1
399 0 2 0 19.331515421596002 6.599391435051331 -3.043472448388775 0 0 0
187 0 1 0 18.04949127539912 7.68043427374386 -2.9602769956779174 0 0 0
486 0 2 0 20.41784109703297 3.530603447367664 -2.635705889750726 0 0 0
578 0 2 0 -20.527905062989582 -4.5181035284635005 -1.1834525785682113 0 0 0
147 0 1 0 -19.45942378825321 -3.6180273768441404 -0.4582389436206541 0 0 0
656 0 2 0 -19.692116592235067 -3.587764102000709 1.1278358454558803 0 0 0
20 0 1 0 -20.982093246882553 -3.3871987235646763 2.143994573278376 1 0 0
552 0 2 0 -17.388946869904466 -7.895268668261589 1.325299227925797 0 0 0
633 0 2 0 -18.007264376521277 -4.061025419193669 -1.0737960890961196 0 0 0
151 0 1 0 -15.953085899776987 -7.128695431130933 1.2139129609780954 0 0 0
357 0 2 0 -15.952653446243911 -5.940325909823257 0.16525161373732794 0 0 0
434 0 2 0 -15.605599272553036 -6.372724968391212 2.645134402710721 0 1 0
9 0 1 0 -16.70165056458205 -3.1379871681051936 -1.5270014927845958 0 0 0
262 0 2 0 -20.72209050648464 -4.454567187386383 3.317880362527027 0 0 0
32 0 1 0 -14.873602343316733 -5.372936303524293 -0.8959526729943484 0 0 0
475 0 2 0 -15.309251689357627 -3.8486291455496433 -1.0042147137027573 0 0 0
603 0 2 0 -15.385835708361325 -6.185868359658028 -2.337487794041346 0 0 0
701 0 2 0 -13.304870681317553 -5.588364026302055 -0.45410103173077615 0 0 0
338 0 2 0 -10.694490077605863 -5.365474198317328 0.11803312514696801 0 0 0
549 0 2 0 -14.842856037577633 -8.159382030612422 0.6729256589422955 0 1 0
672 0 2 0 -12.607587313562219 -6.006893977493408 2.0092498520878457 0 0 0
119 0 1 0 -12.195970290519629 -5.06972278044918 0.7259781747064495 0 0 0
652 0 2 0 -12.420505107297494 -3.5468316396054087 1.0618629611452717 0 0 0
314 0 2 0 -9.386604175345491 -8.61196208466616 1.0556978755954356 0 0 0
670 0 2 0 -11.24460878399158 -7.932151922108341 3.094102125404378 0 1 0
82 0 1 0 -12.774456126569511 -7.1813610664065 3.214200852021207 0 1 0
481 0 2 0 -13.620242529393593 -8.511311897944198 2.8052625634718242 0 1 0
202 0 1 0 -5.370600965271866 -5.95393606244744 -2.811812563835841 0 0 0
150 0 1 0 -8.173333225321578 -8.06219790114294 0.20722478734863709 0 0 0
435 0 2 0 -8.467403317728278 -6.660531894674903 -0.3934296139873939 0 0 0
309 0 2 0 -5.562831178166107 -4.900180485089349 -1.5377589711128106 0 0 0
179 0 1 0 -5.44631551535052 -8.69399691956738 -1.034455470518159 0 0 0
540 0 2 0 -5.495027985057117 -7.501380746517925 -2.1589460892684844 0 0 0
695 0 2 0 -6.706641698538919 -8.561648669837464 0.045306582018046326 0 0 0
136 0 1 0 -8.994252070574879 -5.31586425635167 0.34780526449484833 0 0 0
584 0 2 0 -7.833647843197465 -4.152866913074704 -0.16435439215046968 0 0 0
77 0 1 0 -6.273817790529634 -3.7767905307784737 -0.5764042654369562 0 0 0
696 0 2 0 -5.175401776209551 -3.6115393063868915 0.6928723633899552 0 0 0
519 0 2 0 -8.767171775327762 -5.4801896973533175 1.9068024620323012 0 0 0
263 0 2 0 -3.8422915267000555 -8.501150172657878 -0.5375651325193173 0 1 0
547 0 2 0 2.0307750050701614 -5.2856285955943445 -3.1462599407035183 0 0 0
84 0 1 0 0.703035777783473 -6.160734932337778 -3.2155242507552977 0 0 0
129 0 1 0 2.3626846524134812 -3.645596541796122 -3.219685089616951 0 0 0
390 0 2 0 -0.4094785147993534 -5.092468347964761 -2.4327836012146844 0 0 0
686 0 2 0 -1.3768420803233994 -7.42716645884137 -1.0775440251867323 0 0 0
487 0 2 0 0.9382212785898645 -7.279274848616165 -2.1402011591471872 0 0 0
17 0 1 0 0.22512203529005248 -7.424993069175328 -0.7297303980322241 0 0 0
204 0 1 0 1.7172348253208405 -6.449629640021096 1.5986109886619853 0 0 0
665 0 2 0 0.7119831865951625 -6.205817685208132 0.3024014706660034 0 0 0
64 0 1 0 1.8973612612289266 -3.5348448749330785 2.4096521282687258 0 0 0
507 0 2 0 2.1524683185251483 -5.150015832165222 2.443791627098686 0 0 0
588 0 2 0 3.083156105026845 -7.17071872561296 0.9908948680533032 0 0 0
674 0 2 0 0.5393471463611235 -3.318455948769212 1.5833179949376857 0 0 0
169 0 1 0 -0.4653102962839739 -3.4626469128003876 -2.0208899553279687 0 0 0
472 0 2 0 -0.7045622320832017 -3.037558499483743 -0.5291944546042626 0 0 0
40 0 1 0 -2.432110247070497 -8.637864496129975 -1.4050952486235415 0 1 0
285 0 2 0 5.417127366532696 -5.5038439819778 -3.0052867080384758 0 0 0
577 0 2 0 3.605118041112064 -3.376270166822999 -2.3345030249852745 0 0 0
200 0 1 0 4.427035635962721 -7.123172269235751 0.1101533683889807 0 0 0
455 0 2 0 4.62661733933647 -5.6434298794279085 -0.5016183480081158 0 0 0
661 0 2 0 4.476730725977813 -8.183688682379923 -1.168371008589862 0 0 0
104 0 1 0 5.8302816367649015 -5.206555622040612 -1.4906040749412142 0 0 0
229 0 1 0 7.324211876003641 -6.48317414595127 0.7046990188310883 0 0 0
364 0 2 0 6.773062031703578 -8.01670133303375 -2.666764219379906 0 0 0
445 0 2 0 8.531674058634259 -7.568977897706715 0.7132645918096594 0 0 0
593 0 2 0 7.043539367698163 -5.9971284858779494 -0.8385871048805872 0 0 0
626 0 2 0 5.968094091223321 -3.6179750116361404 -1.3026042139780132 0 0 0
575 0 2 0 5.812985970429562 -7.345534636776416 1.0752595288762108 0 0 0
234 0 1 0 5.535993208044399 -8.388100218129093 2.4272413060950737 0 1 0
166 0 1 0 8.022588619218766 -8.356727864302389 -1.6734931936002824 0 1 0
379 0 2 0 7.613499462764537 -5.260182135886442 1.6635831945415154 0 0 0
1 0 1 0 7.897929239233175 -3.7471129537330805 2.0840830224236684 0 0 0
227 0 1 0 5.199844470664605 -8.545743587659262 -2.595100785648763 0 0 0
563 0 2 0 8.621270099872106 -2.9546486137771177 0.8698908055873659 0 0 0
316 0 2 0 9.476539153243536 -8.084498316920946 -2.08663403192248 0 0 0
616 0 2 0 13.312105158026618 -5.2079961294567525 -1.6644012100964054 0 0 0
10 0 1 0 11.980590133714564 -4.72974159970642 -0.7955057701438656 0 0 0
165 0 1 0 11.942905477590472 -7.5632886727360145 -0.2216972943217696 0 0 0
501 0 2 0 11.140560212802846 -3.7592996745525618 -1.7714869727501485 0 0 0
565 0 2 0 11.232554190354627 -6.08947030265436 -0.4140847422391847 0 0 0
589 0 2 0 12.167915503479428 -8.291445753693413 -1.670364476631527 0 1 0
382 0 2 0 12.75634599628124 -3.905360869053453 0.3636222435022137 0 0 0
92 0 1 0 14.0350598780215 -7.9457346535652995 1.7729256277050591 0 0 0
250 0 2 0 13.291248130802877 -7.198877610261188 0.5941800484214914 0 0 0
238 0 1 0 14.272879599014004 -3.2833980879025724 0.5081966201139623 0 0 0
137 0 1 0 14.24156863348135 -4.059010254368888 -2.4286640187151165 0 0 0
596 0 2 0 14.73697449553869 -3.236513602948551 -1.0827563395083273 0 0 0
716 0 2 0 10.96108192834388 -8.471004468417647 0.6452046219961876 0 0 0
143 0 1 0 9.64122051549542 -8.435939063421712 1.5668770865848571 0 0 0
388 0 2 0 15.346839194882577 -4.182769971646629 1.3155653706852644 0 0 0
681 0 2 0 15.506433874409105 -7.481225925198272 2.1735505064651557 0 0 0
83 0 1 0 13.839382330959758 -8.589335736030769 -2.267282847695739 0 0 0
541 0 2 0 14.712034860146368 -8.601051862805772 -0.9432345810466357 0 0 0
355 0 2 0 21.70661226049218 -3.700398656127361 1.562016723032871 -1 0 0
605 0 2 0 20.123281083651364 -7.9369918528378145 1.7778514310730713 -1 1 0
29 0 1 0 17.903061681430103 -7.061538574387615 -1.3714204027153896 0 0 0
45 0 1 0 18.485646310040437 -4.180980486124749 -1.4051399006016931 0 0 0
326 0 2 0 16.53320274369267 -6.536901849259678 -1.9408170243651386 0 0 0
682 0 2 0 18.873831112718342 -5.747057087738376 -1.4500386345940954 0 0 0
456 0 2 0 17.600590096322904 -3.8840443598293115 -0.10181421066823976 0 0 0
244 0 2 0 19.72325640166799 -3.1657370803554166 -1.567314647240054 -1 0 0
181 0 1 0 16.977902828296408 -4.133424376967519 1.3629198291129145 0 0 0
425 0 2 0 17.932390334222013 -7.648042198522356 0.13516982608624198 0 1 0
353 0 2 0 17.319607533125875 -5.58111527840508 1.9906589235543475 0 0 0
618 0 2 0 18.421471163528267 -8.270132515921759 -2.3502538068604952 0 0 0
600 0 2 0 17.524983730618985 -2.913669391546339 2.3483300337889395 0 0 0
235 0 1 0 16.61574514950233 -6.638316526410747 2.9390999526679575 0 0 0
683 0 2 0 -21.958810216045453 1.538391234585772 -2.449032101593822 1 0 0
296 0 2 0 -19.51537746563556 -2.000694510642644 -0.7519966806891266 0 0 0
537 0 2 0 -20.21573096525714 1.5325881414884375 1.1614601310063335 0 0 0
39 0 1 0 -18.65894985304747 1.2768253807698944 1.428371307212652 0 0 0
675 0 2 0 -17.786932396684893 2.4875475169696237 0.8113500452461602 0 0 0
256 0 2 0 -18.243443280548007 -0.11001519502329593 0.7216861854783637 0 0 0
52 0 1 0 -18.29930216562689 -1.0688302305898842 -0.4773091305600967 0 0 0
466 0 2 0 -16.955671779101593 -1.6250728018257679 -1.0791004763385597 0 0 0
336 0 2 0 -21.02239859571849 -1.6598790232930032 2.538314904071891 0 0 0
270 0 2 0 -18.43052805713429 1.3899242018246216 3.0104906461999548 0 0 0
132 0 1 0 -4.950322769420577 1.5054881405760963 -2.342358759091242 0 0 0
381 0 2 0 -6.294179929172129 2.4089347472610516 -2.372311654599725 0 0 0
300 0 2 0 -3.5106073808388594 2.4626904439651476 -2.1995181621568918 0 0 0
335 0 2 0 -7.417454575920756 -0.09206351166835702 -0.20969854416333608 0 0 0
673 0 2 0 -5.004873991358021 0.2384403959673964 -1.3912557118578628 0 0 0
123 0 1 0 -5.978953828973832 -0.685943814535678 -0.5511382706135962 0 0 0
694 0 2 0 -6.2038965445075895 -2.235709378831208 -1.2412137975057238 0 0 0
193 0 1 0 -4.463426332359994 -2.3149138687716944 1.3116164853388659 0 0 0
655 0 2 0 -5.209288452855084 -1.0751315791790423 0.8119705491986852 0 0 0
649 0 2 0 -1.4188103144364632 -2.606019208968619 -2.9808350316426373 0 0 0
444 0 2 0 -3.19647661484273 -1.9851154284176635 2.1992361088623973 0 0 0
518 0 2 0 1.0566628191962195 -3.0313427340057073 -2.568160686748212 0 0 0
117 0 1 0 -1.7920156822829476 -1.1403934004404572 2.6553829856727416 0 0 0
344 0 2 0 -0.7989467107212462 -1.1006894927908304 1.3445576252705307 0 0 0
49 0 1 0 0.14754046860673853 -2.179206836384499 0.538394786554948 0 0 0
291 0 2 0 1.5344286082872998 -1.5420924655218053 -0.06222675157911269 0 0 0
213 0 1 0 3.080445500414161 -1.5420554115215896 0.4833744637883316 0 0 0
516 0 2 0 1.7904050311255553 1.7564299831662211 2.31130870276707 0 0 0
413 0 2 0 3.326592952689527 -0.15060914808457682 1.1952541025956924 0 0 0
688 0 2 0 0.5662534105358823 2.2656951115894017 -2.249448439994353 0 0 0
18 0 1 0 3.185641040593424 0.8790581196087821 2.430484873665647 0 0 0
168 0 1 0 8.176356377640936 0.14276547770631431 -3.040343223733405 0 0 0
506 0 2 0 6.169093420406284 2.495417780651678 -2.9170417261064205 0 0 0
662 0 2 0 5.540009318466549 -1.8744034741915732 -3.0977174104615455 0 0 0
258 0 2 0 3.0888674938614287 -2.7846457208749857 1.5024916112695448 0 0 0
305 0 2 0 4.262763112467464 -1.669265370310609 -0.6262565177413023 0 0 0
107 0 1 0 6.571939199224367 1.9277445321172628 -1.4855652335229836 0 0 0
182 0 1 0 4.873651290676182 -2.5637730471076825 -1.785201607944126 0 0 0
239 0 1 0 5.557487371636263 2.208489571449542 1.1260814429297166 0 0 0
503 0 2 0 5.364997955274191 1.9778475478916402 -0.43779343640276375 0 0 0
579 0 2 0 4.379717884234893 1.9558407668286897 2.190228287110375 0 0 0
427 0 2 0 7.1987652138425275 0.49064329799171524 -1.8069783564676696 0 0 0
715 0 2 0 6.700589989042815 1.0832935740402938 1.3960039256665286 0 0 0
15 0 1 0 8.198161235710206 0.7723716964801461 1.7773743782831641 0 0 0
477 0 2 0 8.98634878633985 -0.26060835878231714 0.8015754273705307 0 0 0
48 0 1 0 9.549871653649959 -1.705129826007516 0.9379106042313761 0 0 0