ITEM: TIMESTEP
35000
ITEM: NUMBER OF ATOMS
663
ITEM: BOX BOUNDS pp pp pp
-5.5120844385074523e+00 2.6097662150105961e+01
-1.2771230207837192e-01 2.0713290013678069e+01
3.2117523930885632e+00 1.7373825318513106e+01
ITEM: ATOMS id type xs ys zs
291 1 0.0242861 0.319565 0.455019
475 2 0.0363197 0.256823 0.399362
508 2 0.0566472 0.329769 0.221161
498 1 0.102971 0.301987 0.221975
68 2 0.106035 0.226637 0.239542
64 1 0.0408614 0.182705 0.412877
184 2 0.0775991 0.169798 0.488688
327 1 0.0959811 0.153701 0.248584
197 2 0.0561548 0.151371 0.317175
234 2 0.130884 0.323095 0.134336
43 2 0.0860601 0.125954 0.145786
547 2 0.133793 0.112344 0.291357
127 1 0.168642 0.0581229 0.28452
500 2 1.00005 0.060358 0.206919
483 2 0.187522 0.211876 0.0285555
206 2 0.191044 0.0482603 0.383356
334 1 0.0787881 0.125572 0.0368949
99 2 0.203352 0.0775415 0.204797
376 2 0.0396893 0.16901 0.010252
392 2 0.23775 0.300911 0.330552
151 2 0.34609 0.30405 0.221912
533 1 0.34234 0.23136 0.255401
183 1 0.246854 0.230194 0.2973
42 2 0.294082 0.222216 0.260177
572 2 0.218412 0.217697 0.206285
331 2 0.362432 0.218391 0.359582
296 2 0.23779 0.183672 0.380609
448 2 0.368913 0.184619 0.18642
514 1 0.245194 0.16514 0.48483
430 2 0.366851 0.127518 0.481925
516 1 0.228103 0.206294 0.0921513
171 2 0.258524 0.0904694 0.477637
255 1 0.254017 0.342126 0.0821032
50 2 0.248206 0.13548 0.0812789
366 2 0.256896 0.268713 0.0707003
125 2 0.37823 0.336837 0.0662885
75 1 0.387103 0.193748 0.450818
113 2 0.284342 0.0580994 0.200174
389 1 0.242783 0.0649921 0.136881
143 2 0.334392 0.0559291 0.35131
12 1 0.363273 0.0545104 0.443416
415 1 0.233604 0.0287014 0.433495
156 1 0.30205 0.0185724 0.289345
176 2 0.395106 0.251601 0.518578
452 1 0.412875 0.324808 0.499112
301 2 0.449416 0.319394 0.422386
62 2 0.446026 0.188943 0.235049
360 2 0.434082 0.177315 0.415722
480 1 0.416592 0.172882 0.146104
645 5 0.603895 0.156327 0.181971
470 1 0.459998 0.158136 0.3285
617 6 0.557374 0.255198 0.508109
616 5 0.52866 0.218593 0.50834
87 2 0.42946 0.102149 0.114443
179 2 0.472566 0.0876314 0.325978
247 2 0.423452 0.228506 0.0702879
628 5 0.563461 0.0617013 0.337823
649 3 0.536915 0.109723 0.0101
651 4 0.549702 0.0689133 0.0222257
131 2 0.409332 0.0345848 0.40953
370 1 0.425992 0.0276277 0.125484
282 1 0.417073 0.298084 0.026301
644 6 0.640126 0.168967 0.175308
2 1 0.448154 0.0203724 0.339351
553 2 0.425135 0.0124898 0.237046
650 4 0.550031 0.124314 0.953089
583 3 0.581748 0.0034193 0.0621167
629 6 0.594644 0.0487349 0.296304
643 5 0.676896 0.177945 0.170209
518 2 0.666632 0.289972 0.312864
340 2 0.763802 0.278224 0.250109
59 2 0.68421 0.245984 0.488445
525 1 0.679261 0.229406 0.378936
316 1 0.76595 0.207533 0.292951
193 2 0.725796 0.200791 0.35715
364 2 0.647294 0.174863 0.361975
77 2 0.76153 0.160995 0.20048
218 1 0.769246 0.165012 0.0910213
654 5 0.684905 0.0119479 0.088
636 5 0.713961 0.074806 0.417694
373 2 0.761786 0.234022 0.0507722
635 6 0.680022 0.0663943 0.447238
630 5 0.626294 0.0431205 0.251334
537 2 0.743912 0.113429 0.0262735
584 4 0.607168 0.0268749 0.074673
523 1 0.776374 0.303999 0.0184953
653 6 0.705271 0.0128886 0.158493
652 5 0.726666 0.0123696 0.227316
447 2 0.995176 0.159013 0.44963
284 2 0.998692 0.265343 0.0548681
6 2 0.850885 0.317485 0.29167
277 2 0.86833 0.261234 0.450009
208 1 0.854711 0.247704 0.342998
450 2 0.810988 0.210806 0.347722
148 2 0.888499 0.203624 0.282922
110 1 0.920208 0.205896 0.199919
403 2 0.932452 0.269976 0.154532
168 2 0.936824 0.138943 0.166823
251 2 0.818607 0.134912 0.0904552
120 1 0.961146 0.313557 0.0900768
57 1 0.960849 0.115111 0.49636
455 2 0.924412 0.102705 0.418044
155 1 0.95236 0.0648657 0.177917
272 1 0.826855 0.0579938 0.0948453
286 2 0.985151 0.0464875 0.505541
377 2 0.926685 0.0380396 0.268361
289 1 0.904918 0.0425699 0.368044
474 2 0.85451 0.0395498 0.346321
315 2 0.808915 0.040475 0.197459
187 2 0.871692 0.0243807 0.0872046
26 2 0.94689 0.0202117 0.0853475
308 1 0.820143 0.00719693 0.290272
40 2 0.801125 0.031498 0.0125983
8 2 0.122907 0.336728 0.311796
409 2 0.0578113 0.37355 0.420964
217 1 0.153385 0.366984 0.0593791
346 2 0.136745 0.384124 0.474488
417 1 0.10498 0.38801 0.388527
146 1 0.025413 0.388103 0.201132
556 2 0.0575883 0.429171 0.142181
509 2 0.00981771 0.440628 0.274096
35 2 0.104878 0.459255 0.348426
29 1 0.00690111 0.51503 0.284278
103 2 0.0714198 0.525514 0.487877
136 1 0.0896769 0.527336 0.38231
328 2 0.0522195 0.547477 0.31372
17 2 0.130868 0.569662 0.383304
211 2 0.122217 0.642815 0.168938
522 2 0.176429 0.492065 0.478566
471 1 0.179521 0.546617 0.398172
224 2 0.166903 0.550629 0.0994658
264 1 0.123662 0.590209 0.0868111
468 2 0.0875105 0.538166 0.0809545
46 1 0.0806107 0.464479 0.0583251
293 2 0.12724 0.432642 0.0550736
520 2 0.200575 0.521252 0.306017
569 1 0.345187 0.360515 0.141598
396 2 0.374244 0.368015 0.470085
302 2 0.297245 0.370495 0.107319
349 2 0.206929 0.370901 0.0743745
290 1 0.324335 0.37393 0.501923
238 2 0.291897 0.369174 0.419647
210 1 0.246129 0.369407 0.377493
297 2 0.216795 0.388995 0.466231
457 2 0.241067 0.416684 0.288979
169 2 0.360857 0.429085 0.177336
48 1 0.24158 0.491059 0.260169
145 1 0.375996 0.499577 0.145509
558 2 0.240183 0.514777 0.149297
499 2 0.284362 0.517891 0.298979
49 2 0.34624 0.550115 0.194877
226 1 0.319191 0.571034 0.281605
213 2 0.346992 0.580404 0.370479
76 2 0.209739 0.600494 0.434752
216 2 0.29275 0.634733 0.268419
307 1 0.372537 0.639178 0.406554
310 2 0.221981 0.638098 0.105596
344 1 0.214969 0.564238 0.0821329
384 2 0.371195 0.498935 0.0319837
618 5 0.588567 0.286594 0.5087
269 2 0.461698 0.340854 0.0538039
446 2 0.542786 0.389986 0.129906
299 1 0.496587 0.39472 0.0841317
181 1 0.5805 0.41112 0.195018
257 2 0.565459 0.469476 0.254295
564 2 0.424343 0.512642 0.168545
149 2 0.514536 0.536447 0.366394
165 1 0.539364 0.535897 0.268471
66 1 0.507603 0.573441 0.466838
544 2 0.400411 0.663059 0.323453
240 2 0.509411 0.646172 0.428814
350 2 0.575914 0.594661 0.268634
142 2 0.505786 0.5478 0.187758
418 2 0.414582 0.672537 0.136139
281 1 0.469025 0.531498 0.117521
358 2 0.482386 0.463754 0.0677758
330 2 0.454786 0.590885 0.0492251
406 1 0.433249 0.658029 0.0316007
637 5 0.569853 0.54726 0.0383627
619 5 0.620494 0.40371 0.451771
31 2 0.784467 0.344845 0.110671
82 1 0.761116 0.348498 0.20814
174 1 0.671078 0.358943 0.265579
23 2 0.712227 0.358094 0.199182
337 2 0.625708 0.382643 0.223525
153 2 0.761734 0.39823 0.477845
501 2 0.785833 0.393509 0.281545
24 2 0.692937 0.403006 0.352781
416 1 0.736686 0.428841 0.39343
535 2 0.747637 0.500813 0.388956
486 2 0.699465 0.48324 0.137491
200 1 0.761356 0.574543 0.386204
368 2 0.723047 0.610783 0.338102
56 1 0.607591 0.641808 0.311871
159 2 0.65393 0.650417 0.277094
372 1 0.704339 0.645749 0.248226
321 2 0.715868 0.602784 0.15678
53 2 0.775271 0.596771 0.490803
192 1 0.723535 0.541092 0.092359
347 2 0.770853 0.522854 0.0716314
89 2 0.977391 0.334242 0.424371
359 2 0.984146 0.366639 0.145815
534 1 0.834606 0.391501 0.311209
90 2 0.835172 0.399071 0.425165
283 2 0.988923 0.543841 0.188038
511 2 0.8581 0.448888 0.262156
180 2 0.919055 0.490146 0.150884
507 1 0.871505 0.497008 0.180865
223 2 0.97627 0.534354 0.366919
497 1 0.963789 0.539242 0.476461
97 2 0.803495 0.581809 0.323855
491 2 0.923764 0.586162 0.496561
543 1 0.837986 0.621642 0.268567
261 2 0.874175 0.652305 0.327743
312 2 0.858255 0.56803 0.202842
570 1 0.95748 0.527824 0.106169
382 2 0.845219 0.475775 0.0905145
454 2 0.931795 0.583039 0.0516351
166 2 0.982842 0.493954 0.0240064
542 1 0.814952 0.511198 0.0208411
161 2 0.0221427 0.702864 0.456972
323 2 0.0110512 0.71049 0.277168
194 2 0.0215467 0.715344 0.0940705
203 2 0.139534 0.715619 0.318927
111 1 0.125611 0.71362 0.209237
311 2 0.184076 0.714551 0.474513
137 1 0.0334616 0.744582 0.192854
440 2 0.0824211 0.746266 0.202413
532 1 0.166203 0.759607 0.390938
465 2 0.158871 0.764117 0.1591
9 2 0.0180955 0.817194 0.199661
188 2 0.139949 0.820581 0.420893
551 1 0.0135864 0.853653 0.468806
88 2 0.0615388 0.862822 0.453451
469 1 0.10675 0.87854 0.412722
220 2 0.0993847 0.899493 0.306325
265 2 0.122251 0.939603 0.468255
539 2 0.0303147 0.0108845 0.363446
37 1 0.0148181 0.994181 0.462183
397 1 0.0274452 0.00522336 0.250538
242 2 0.150774 0.989674 0.254062
39 1 0.111093 0.947045 0.228112
115 2 0.0734643 0.997517 0.21421
18 2 0.114703 0.904136 0.136028
435 1 0.180016 0.800555 0.0743142
164 1 0.106577 0.875236 0.033438
493 2 0.0620312 0.846849 0.0162664
391 2 0.00242173 0.940063 0.229716
52 2 0.139678 0.818805 0.0152049
504 2 0.344748 0.684323 0.468116
412 2 0.262689 0.684949 0.516601
173 1 0.247165 0.701744 0.0690995
93 1 0.297875 0.70856 0.245342
562 2 0.346463 0.717496 0.218041
157 2 0.269886 0.728235 0.157848
292 2 0.286672 0.747164 0.342507
473 2 0.208354 0.787132 0.338981
489 1 0.255432 0.805245 0.364364
114 2 0.254547 0.833305 0.469483
573 2 0.359851 0.855752 0.265796
233 2 0.277482 0.859512 0.30126
38 1 0.314467 0.881093 0.233422
58 2 0.262721 0.000925707 0.352363
303 2 0.320756 0.955756 0.246828
463 2 0.301713 0.854999 0.133763
160 2 0.19948 0.873504 0.0895662
423 2 0.233254 0.999718 0.0833408
453 1 0.221498 0.935123 0.0272154
521 2 0.388166 0.0142789 0.0518133
386 2 0.214543 0.754504 0.029636
190 1 0.303025 0.868718 0.027261
362 1 0.395896 0.703636 0.229221
214 2 0.586527 0.684342 0.391218
352 1 0.536454 0.711047 0.413391
33 2 0.524504 0.752792 0.32522
367 2 0.417153 0.768452 0.251117
609 4 0.554258 0.791022 0.127368
244 1 0.408887 0.842052 0.268058
65 1 0.423374 0.868492 0.48573
394 2 0.422599 0.862772 0.373095
405 2 0.520213 0.874254 0.496017
279 2 0.431884 0.87511 0.179791
343 1 0.498335 0.942211 0.471866
333 2 0.483028 0.969554 0.372108
449 2 0.459574 0.971024 0.0862508
273 1 0.448706 0.894818 0.0783743
320 2 0.481527 0.842522 0.0403028
607 3 0.567534 0.811924 0.179752
608 4 0.551893 0.797662 0.233687
528 2 0.408458 0.89511 0.0129815
585 4 0.580869 0.971175 0.110209
445 2 0.527855 0.752158 0.50816
5 2 0.729743 0.712041 0.242032
3 1 0.777109 0.73582 0.269282
167 2 0.779608 0.736902 0.380883
132 2 0.711167 0.750169 0.477808
317 1 0.759993 0.758525 0.478459
614 4 0.665164 0.802163 0.499205
613 3 0.63887 0.817181 0.473993
606 4 0.658185 0.925039 0.32004
604 3 0.675789 0.922587 0.374916
605 4 0.667768 0.883227 0.404796
587 4 0.605574 0.876288 0.176015
202 2 0.711907 0.88154 0.102738
588 4 0.636567 0.906868 0.108068
106 2 0.79098 0.81027 0.249041
388 1 0.757877 0.873999 0.0662198
586 3 0.624338 0.912057 0.169427
482 2 0.774683 0.802631 0.0468625
515 1 0.796702 0.895726 0.475044
150 2 0.791841 0.904133 0.138185
221 2 0.771481 0.835327 0.499715
615 4 0.627127 0.780665 0.442472
256 2 0.997924 0.804338 0.389681
459 2 0.811026 0.683051 0.227645
207 2 0.944685 0.71122 0.385267
326 1 0.898666 0.717876 0.33514
245 1 0.992742 0.728593 0.377017
546 2 0.900147 0.748803 0.233321
61 2 0.873075 0.765121 0.403313
574 2 0.989105 0.926582 0.446368
263 1 0.987383 0.874611 0.179246
91 1 0.879025 0.821977 0.475378
280 1 0.902559 0.814299 0.182504
252 2 0.942761 0.854215 0.216321
314 2 0.862326 0.857395 0.216052
503 2 0.922011 0.856946 0.454771
85 2 0.845456 0.880182 0.462455
552 1 0.814788 0.873936 0.226295
325 1 0.938835 0.925163 0.476687
306 2 0.811268 0.9341 0.300366
67 2 0.914898 0.982991 0.431759
554 2 0.903448 0.805634 0.0728126
530 2 0.986676 0.878633 0.069566
118 1 0.908095 0.997583 0.0236755
365 2 0.896338 0.920461 0.0116465
112 2 0.111802 0.0586795 0.525962
338 2 0.0261964 0.319218 0.567116
451 1 0.0966129 0.126676 0.569305
426 1 0.131242 0.308125 0.861442
260 2 0.082429 0.299313 0.871786
422 2 0.0273641 0.331783 0.749492
407 1 0.0428234 0.275428 0.814154
116 2 0.150763 0.237011 0.863119
123 2 0.00855535 0.245349 0.881667
527 2 0.053599 0.217797 0.741213
21 1 0.16132 0.183662 0.94091
490 2 0.133791 0.1558 0.627545
549 2 0.121419 0.151198 0.988525
390 1 0.0434269 0.143861 0.736436
318 1 0.181845 0.13664 0.637452
139 2 0.0602143 0.111577 0.642546
485 2 0.0697069 0.110813 0.822135
576 2 0.0741715 0.0574742 0.98402
250 2 0.189342 0.0597571 0.642482
55 1 0.0783068 0.0457772 0.877047
94 2 0.189726 0.134432 0.889177
413 2 0.126101 0.0208003 0.859452
201 1 0.999107 0.210718 0.978992
27 2 0.273972 0.21415 0.535353
427 2 0.202844 0.163254 0.545093
196 2 0.319973 0.315209 0.574011
102 1 0.300475 0.250612 0.615738
436 2 0.33027 0.191727 0.651356
69 2 0.277386 0.273249 0.713049
361 1 0.280328 0.273857 0.824767
476 2 0.328988 0.26647 0.853212
144 2 0.253854 0.212738 0.857952
60 2 0.209596 0.16352 0.721402
505 1 0.377987 0.261312 0.827378
298 1 0.353884 0.147378 0.721219
209 1 0.228614 0.149522 0.824267
563 2 0.382941 0.188556 0.784474
287 2 0.3334 0.0834167 0.736316
104 2 0.259227 0.0889605 0.816874
246 1 0.29141 0.0424051 0.759908
393 2 0.263201 0.0190957 0.672394
324 2 0.388055 0.313536 0.750797
598 5 0.477771 0.0941084 0.537053
600 5 0.449765 0.168871 0.641309
611 4 0.511355 0.266286 0.732609
610 3 0.537103 0.244246 0.74722
612 4 0.528133 0.204634 0.774959
14 2 0.465906 0.289181 0.728937
117 2 0.405081 0.283824 0.91737
655 3 0.469976 0.0941406 0.85876
656 4 0.497813 0.0974952 0.832615
657 4 0.474058 0.0984831 0.925427
222 2 0.558235 0.117802 0.796752
599 6 0.464325 0.130358 0.593326
661 5 0.547123 0.296306 0.974818
319 2 0.580818 0.0570296 0.643892
648 5 0.422602 0.0421551 0.649202
662 6 0.572348 0.261877 0.944586
647 6 0.451587 0.0138929 0.683263
663 5 0.5975 0.22478 0.922719
634 5 0.645163 0.0582933 0.471025
462 1 0.593552 0.071876 0.755683
595 5 0.675427 0.206458 0.981021
596 6 0.657842 0.156237 0.979195
597 5 0.640166 0.106801 0.967657
294 2 0.754093 0.193164 0.549294
154 1 0.708794 0.217424 0.575558
404 2 0.683333 0.162076 0.633107
268 2 0.711786 0.2716 0.653899
496 1 0.684517 0.287884 0.743132
239 2 0.741286 0.336655 0.954936
348 2 0.658777 0.229629 0.771361
488 1 0.767368 0.165115 0.79381
399 1 0.671692 0.155292 0.739891
70 2 0.718488 0.147131 0.793637
429 2 0.777979 0.239905 0.811956
304 2 0.786372 0.120822 0.875781
414 2 0.638692 0.102505 0.760866
353 1 0.767032 0.0674832 0.949389
98 2 0.787999 0.145649 0.699516
134 2 0.747956 0.0215008 0.630694
479 1 0.791086 0.0194198 0.583868
34 2 0.743746 0.014603 0.889305
28 1 0.793572 0.156717 0.5903
419 2 0.799691 0.0897276 0.543424
4 2 0.995224 0.129514 0.743119
253 1 0.852736 0.267362 0.559497
95 2 0.815391 0.320401 0.562497
464 2 0.834572 0.197637 0.578509
540 2 0.945776 0.134744 0.596127
63 2 0.885198 0.284381 0.64031
126 2 0.814989 0.291785 0.954659
477 2 0.933963 0.33313 0.000826419
456 2 0.926709 0.323618 0.809942
237 1 0.817963 0.283437 0.84578
271 1 0.903091 0.26888 0.750683
467 2 0.86039 0.254505 0.806789
428 2 0.931506 0.209058 0.736201
274 2 0.956342 0.174554 0.971885
30 1 0.948243 0.138443 0.709082
124 2 0.920575 0.0840384 0.753607
531 2 0.909463 0.0340526 0.925857
561 1 0.921141 0.0235865 0.819668
16 2 0.826776 4.41632e-05 0.656266
199 1 0.1759 0.420455 0.515349
158 2 0.149903 0.340714 0.952659
135 2 0.143367 0.349291 0.767697
568 1 0.0362734 0.36956 0.6517
351 2 0.00124875 0.563816 0.540676
178 2 0.084664 0.39371 0.652648
560 1 0.129903 0.408177 0.701476
219 1 0.0502858 0.56578 0.571053
212 2 0.168627 0.417941 0.626177
15 2 0.0600858 0.639327 0.58307
481 2 0.0510718 0.448597 0.967593
371 1 0.00506458 0.463811 0.933256
341 2 0.123293 0.474028 0.760323
374 2 0.00596914 0.515921 0.853014
437 2 0.0648995 0.538397 0.67282
128 1 0.104361 0.54537 0.739748
513 2 0.142139 0.57767 0.683268
32 2 0.0966346 0.593349 0.826563
510 2 0.124821 0.627117 0.989904
559 1 0.0996067 0.652018 0.898265
441 2 0.0554857 0.673089 0.938368
78 2 0.187724 0.666176 0.771523
336 1 0.189649 0.602973 0.709425
47 1 0.216016 0.658043 0.508785
189 2 0.272044 0.346684 0.859225
270 2 0.317636 0.438536 0.561188
236 1 0.286695 0.420691 0.843743
375 2 0.296428 0.433986 0.734786
332 2 0.372818 0.453181 0.698609
41 2 0.326211 0.449192 0.900577
517 2 0.246759 0.460608 0.876119
227 1 0.327681 0.46729 0.661436
285 2 0.208219 0.623581 0.611014
79 2 0.324311 0.663927 0.638424
354 1 0.357278 0.508841 0.924572
19 1 0.228176 0.528716 0.869936
11 1 0.355143 0.60785 0.668157
258 2 0.325422 0.543822 0.674527
566 2 0.22329 0.553912 0.969751
545 2 0.214512 0.55179 0.771085
383 2 0.336654 0.576453 0.901477
300 1 0.362403 0.643673 0.871835
295 2 0.375282 0.624435 0.766472
54 2 0.392303 0.594693 0.597149
571 2 0.39782 0.495528 0.854169
74 1 0.431407 0.341793 0.710197
81 2 0.464834 0.558135 0.519121
395 2 0.548209 0.561049 0.531464
259 2 0.428391 0.355057 0.599051
601 5 0.541688 0.408451 0.548746
602 6 0.54141 0.406813 0.630926
659 6 0.594254 0.420681 0.823951
660 5 0.569249 0.439643 0.879612
603 5 0.539407 0.40505 0.712064
13 2 0.439647 0.40692 0.764265
434 1 0.416247 0.474259 0.752975
363 1 0.440982 0.58063 0.615239
592 5 0.523622 0.549967 0.824958
313 2 0.460702 0.642103 0.648558
378 2 0.44176 0.52562 0.694845
594 5 0.498824 0.656894 0.837601
593 6 0.509312 0.602846 0.832578
538 2 0.397474 0.647333 0.952987
578 4 0.587513 0.556109 0.622846
620 6 0.635875 0.379726 0.516453
626 6 0.661979 0.534908 0.514762
625 5 0.673097 0.483933 0.541442
627 5 0.650669 0.584603 0.486946
621 5 0.653319 0.355674 0.578497
658 5 0.61778 0.395591 0.769821
243 2 0.697808 0.346778 0.799914
579 4 0.60249 0.586808 0.713779
638 6 0.599215 0.550195 0.989951
580 3 0.597869 0.662959 0.809302
577 3 0.603523 0.547535 0.678812
478 1 0.708219 0.381078 0.900017
45 2 0.664533 0.38468 0.952786
622 5 0.696553 0.600106 0.619367
267 2 0.722427 0.452169 0.880266
639 5 0.626264 0.540887 0.936221
119 1 0.729061 0.525446 0.891656
108 2 0.709665 0.555485 0.981664
177 2 0.754316 0.567994 0.819917
506 1 0.783493 0.624231 0.774105
385 2 0.793963 0.617941 0.665632
582 4 0.615326 0.67553 0.861339
425 1 0.803724 0.642191 0.560005
408 1 0.807834 0.390321 0.520867
431 2 0.821468 0.360765 0.815215
432 2 0.998376 0.420946 0.65112
305 2 0.952756 0.474276 0.529
100 1 0.929954 0.366923 0.900576
357 2 0.85318 0.644457 0.547057
205 2 0.974304 0.407035 0.898715
444 1 0.843162 0.425372 0.85394
71 2 0.887514 0.409525 0.898834
329 2 0.905632 0.42838 0.649226
309 1 0.894211 0.609921 0.581587
502 2 0.824321 0.439937 0.598084
92 1 0.952868 0.452496 0.633985
80 2 0.986089 0.61823 0.754035
335 1 0.863766 0.471958 0.657457
130 2 0.814616 0.46738 0.928263
339 2 0.850031 0.46846 0.761893
355 2 0.874866 0.544873 0.625719
231 2 0.953693 0.510474 0.706913
121 2 0.975197 0.663586 0.96091
96 2 0.92242 0.650528 0.651104
461 1 0.970992 0.550113 0.793368
230 2 0.936689 0.568245 0.872899
557 2 0.829877 0.580824 0.992833
138 1 0.933926 0.620744 0.953703
141 2 0.891405 0.657741 0.935348
182 1 0.841853 0.644082 0.940814
198 2 0.823623 0.636101 0.83629
458 2 0.0512563 0.980557 0.537697
83 1 0.038188 0.705738 0.564446
550 1 0.0154407 0.707555 0.980838
44 2 0.126434 0.709666 0.859505
487 1 0.101268 0.986774 0.544633
442 1 0.158756 0.726741 0.780161
420 2 0.13342 0.736208 0.687809
484 2 0.0720089 0.761126 0.583632
51 2 0.00475714 0.778367 0.946255
1 1 0.100596 0.79218 0.663695
170 2 0.0742011 0.810437 0.754521
529 2 0.129311 0.852309 0.638466
107 2 0.115459 0.967603 0.645183
381 1 0.0140167 0.850305 0.979204
129 1 0.145092 0.915295 0.689065
536 2 0.00645278 0.898557 0.894283
565 2 0.146015 0.910287 0.801537
225 2 0.00583341 0.918774 0.711012
72 2 0.117095 0.931423 0.968736
433 1 0.00762059 0.948762 0.812173
380 1 0.147723 0.955833 0.891575
411 2 0.0471669 0.99544 0.828314
402 2 0.192827 0.95826 0.943892
175 2 0.193187 0.939965 0.675449
342 2 0.190118 0.786078 0.788479
438 2 0.998004 0.708785 0.632777
369 2 0.275536 0.675636 0.988505
195 2 0.348084 0.00162583 0.520685
241 2 0.223991 0.981665 0.520219
22 2 0.376942 0.882908 0.521727
147 1 0.310336 0.703812 0.547824
575 2 0.345005 0.719247 0.861956
424 1 0.276009 0.835475 0.567496
548 2 0.306719 0.775898 0.57142
73 1 0.34816 0.934155 0.579094
400 2 0.302071 0.900549 0.584108
567 2 0.274531 0.78074 0.818626
101 1 0.320802 0.787154 0.865891
163 1 0.23664 0.800397 0.759308
439 2 0.246054 0.82371 0.657219
204 2 0.318789 0.810339 0.968955
524 1 0.218959 0.997077 0.629499
492 2 0.340368 0.853828 0.810763
288 2 0.363141 0.9421 0.686194
249 2 0.259584 0.895494 0.987851
495 2 0.333277 0.926818 0.0162032
262 1 0.348362 0.930974 0.7924
278 2 0.307527 0.979184 0.807093
235 1 0.377708 0.951679 0.987418
152 2 0.376192 0.955615 0.87573
494 2 0.452383 0.92913 0.512521
633 4 0.594108 0.70849 0.0107962
36 2 0.452704 0.810091 0.522884
105 2 0.527467 0.993837 0.519647
228 1 0.501732 0.810149 0.549754
646 5 0.47717 0.982111 0.720863
555 2 0.459044 0.720009 0.994938
526 2 0.53627 0.749328 0.0150738
25 2 0.564686 0.773313 0.762139
20 1 0.565812 0.998822 0.585583
172 1 0.492953 0.777095 0.976498
248 2 0.49564 0.79658 0.863058
84 1 0.524915 0.815967 0.772672
276 2 0.504122 0.822483 0.664645
466 2 0.573432 0.940669 0.651051
421 2 0.543883 0.885847 0.796816
254 1 0.575178 0.935201 0.761142
581 4 0.585367 0.702129 0.787694
140 2 0.587086 0.00210222 0.801664
632 4 0.636917 0.735925 0.0366391
122 2 0.788578 0.967002 0.498254
623 6 0.676629 0.648069 0.62998
631 3 0.623673 0.704299 0.997542
519 2 0.757012 0.69025 0.777323
624 5 0.655476 0.694162 0.643789
387 2 0.783269 0.709338 0.545422
589 5 0.705194 0.888616 0.598045
591 5 0.65953 0.976599 0.632929
398 1 0.772383 0.760986 0.775536
640 5 0.684716 0.768632 0.859896
590 6 0.681045 0.931819 0.611684
641 6 0.663707 0.814335 0.857474
642 5 0.643464 0.860566 0.856434
232 2 0.736075 0.897999 0.801407
410 2 0.764819 0.911059 0.969225
109 1 0.75857 0.943602 0.868728
266 2 0.786865 0.781072 0.874532
460 1 0.965143 0.676977 0.703322
356 2 0.995923 0.840424 0.571602
86 2 0.820952 0.706326 0.987559
472 2 0.946552 0.726968 0.779775
162 2 0.867823 0.797539 0.578799
275 2 0.800991 0.785816 0.697677
345 1 0.808019 0.779007 0.973608
186 2 0.873738 0.777261 0.756879
512 2 0.943825 0.930222 0.585533
10 1 0.920097 0.791271 0.788554
541 1 0.846734 0.811908 0.680392
322 2 0.9195 0.824992 0.888296
229 2 0.844475 0.82887 0.972417
185 2 0.940848 0.842202 0.712666
443 1 0.89403 0.848484 0.983016
379 1 0.971738 0.881945 0.651307
133 2 0.846553 0.887013 0.693125
191 1 0.841774 0.954075 0.743608
215 2 0.806096 0.953173 0.824238
401 2 0.965767 0.9909 0.816858
7 2 0.888235 0.970168 0.786081
