ITEM: TIMESTEP
0
ITEM: NUMBER OF ATOMS
603
ITEM: BOX BOUNDS pp pp pp
-5.5120844385074523e+00 2.6097662150105961e+01
-1.2771230207837192e-01 2.0713290013678069e+01
3.2117523930885632e+00 1.7373825318513106e+01
ITEM: ATOMS id type x y z
346 2 -0.0699814 2.08772 6.34809
417 1 -0.979373 2.1682 5.0663
35 2 -0.944152 3.63844 4.51244
568 1 -3.2807 1.53873 8.96263
409 2 -2.47305 1.81407 5.53734
8 2 -0.44787 1.1206 3.97799
178 2 -1.6622 2.03875 9.05037
328 2 -2.72843 5.41724 4.18693
103 2 -1.98505 4.84023 6.56838
136 1 -1.45728 5.05466 5.07742
17 2 -0.146761 5.96891 5.2482
437 2 -2.20318 4.99489 9.24531
219 1 -2.75706 5.54139 7.84034
29 1 -4.11651 4.66379 3.7683
291 1 -3.47332 0.716501 6.09253
351 2 -4.31074 5.56382 7.38916
338 2 -3.31953 0.565001 7.6971
513 2 0.342838 5.91178 9.36376
560 1 -0.190612 2.30588 9.70688
432 2 -4.6184 2.50136 8.78298
509 2 -3.87941 3.08939 3.45861
89 2 -5.00292 0.981686 5.76679
223 2 -5.16379 4.99239 4.93606
128 1 -0.939056 5.18262 10.1826
80 2 -4.82694 6.73082 10.2567
199 1 1.19994 2.80666 6.97826
212 2 0.986825 2.66993 8.59702
471 1 1.34258 5.43032 5.35571
522 2 1.33726 4.3021 6.52812
336 1 1.82651 6.42105 9.74094
520 2 1.84584 4.81824 3.9719
285 2 2.60618 6.81037 8.41764
375 2 5.17615 2.90584 10.0834
258 2 6.03417 5.43273 9.29307
392 2 3.20069 0.0888613 4.50602
270 2 5.68402 3.32485 7.58512
76 2 2.36415 6.61167 5.77009
196 2 5.64457 0.569729 7.70546
48 1 3.23817 4.15588 3.34996
457 2 3.15143 2.57397 3.6651
213 2 6.75467 5.9141 5.09992
290 1 5.92761 1.80773 6.77642
297 2 2.46155 2.04548 6.23225
11 1 7.00311 6.67461 9.24635
227 1 6.03948 3.81128 9.06935
238 2 4.98665 1.78623 5.4873
499 2 4.49821 4.73597 4.16258
226 1 5.71877 5.73952 3.87297
210 1 3.44616 1.59137 5.01825
378 2 9.73667 4.97809 9.74325
332 2 7.58542 3.48086 9.47542
54 2 8.23017 6.36866 8.14573
452 1 8.75531 0.802317 6.85561
74 1 9.6276 1.11868 9.80809
301 2 9.76178 0.707121 5.60586
396 2 7.51015 1.73485 6.42811
259 2 9.40295 1.45534 8.19177
363 1 9.7951 6.10833 8.56709
324 2 8.26803 0.356007 10.1969
395 2 13.0017 4.63832 7.00868
149 2 11.7404 5.4354 4.8641
66 1 11.9567 5.6777 6.46564
14 2 10.8785 0.178884 10.0288
81 2 10.4898 5.6008 7.23386
165 1 12.7263 5.40178 3.56981
257 2 13.4258 3.94158 3.44355
24 2 17.3579 2.35419 5.06885
174 1 16.7415 1.55881 3.81211
200 1 19.5184 5.87418 5.06965
416 1 18.6977 2.92308 5.57278
368 2 18.3792 6.68679 4.3518
535 2 18.9891 4.37458 5.16374
153 2 19.5896 2.22575 6.68798
518 2 16.5121 -0.0515307 4.2888
350 2 13.9255 6.49209 3.65089
340 2 19.4618 -0.115201 3.72732
496 1 16.9262 0.1063 10.2813
577 3 14.9789 6.05231 7.08874
578 4 15.801 5.59724 6.90651
603 5 13.6818 0.37829 3.22879
90 2 22.0902 2.23607 5.8454
534 1 21.9525 2.0927 4.23271
408 1 21.1402 2.01643 7.19926
6 2 22.3704 0.498209 3.98647
385 2 20.5304 6.53365 9.13304
511 2 22.8166 3.1375 3.42707
92 1 25.5744 3.23616 8.59103
355 2 23.1763 5.16113 8.59812
335 1 22.7753 3.7118 9.13495
97 2 20.9449 5.88873 4.36473
543 1 22.0951 6.74003 3.67413
502 2 21.5466 3.138 8.24018
501 2 20.3776 2.24895 3.88393
309 1 23.7968 6.47118 7.90309
95 2 21.4161 0.554689 7.74663
53 2 19.8027 6.44014 6.58546
231 2 25.6467 4.49837 9.60647
329 2 24.0477 2.76378 8.9945
305 2 25.5384 3.72336 7.05189
491 2 24.7694 6.11651 6.71233
497 1 26.0037 5.11936 6.44526
203 2 0.390212 8.91947 4.50332
83 1 -3.14943 8.40508 7.63065
15 2 -2.3151 7.1239 7.94113
161 2 -3.5189 8.48552 6.09451
420 2 -0.00988792 9.18519 9.46961
484 2 -2.11234 9.6451 8.0581
323 2 -4.14759 8.73097 3.55506
245 1 -4.53066 9.08148 5.04917
438 2 -4.56749 8.53952 8.43049
1 1 -1.19552 10.2554 9.22198
129 1 0.215254 12.9267 9.59994
88 2 -2.30341 11.8865 6.26612
529 2 -0.281897 11.6311 8.92239
265 2 -0.29081 13.5808 6.56628
469 1 -0.738588 12.2806 5.76513
220 2 -0.96325 12.6942 4.23611
551 1 -3.87177 11.7547 6.43094
188 2 0.362083 11.105 5.93384
225 2 -4.34413 13.41 9.85699
356 2 -4.43982 11.6416 7.95237
574 2 -4.73609 13.2079 6.10871
256 2 -4.41561 10.7099 5.35776
379 1 -5.33886 12.4858 9.00495
532 1 1.22612 9.85201 5.51256
311 2 1.8782 8.92983 6.8292
216 2 5.08387 7.21047 3.61862
504 2 7.06013 8.28232 6.18137
292 2 5.03257 9.59068 4.46518
412 2 4.3905 8.07206 6.9154
147 1 5.80172 8.65336 7.29649
79 2 6.24679 7.96449 8.67221
47 1 2.71849 7.57942 7.01357
548 2 5.80816 10.1928 7.69014
175 2 1.76286 13.3109 9.34996
114 2 4.17944 11.5223 6.36427
489 1 4.08843 10.7997 4.90292
473 2 2.51668 10.3835 4.66526
424 1 4.8178 11.4494 7.7991
400 2 5.7236 12.7149 8.18493
233 2 4.616 12.0229 3.8803
439 2 3.71485 11.104 8.96071
544 2 8.59069 7.44642 4.09861
307 1 7.74387 7.12406 5.38347
367 2 9.13639 9.92929 3.52853
73 1 7.18983 13.4555 8.07003
244 1 9.07056 11.4732 3.91363
22 2 8.17352 12.2797 7.45885
573 2 7.43095 11.8723 3.89309
65 1 9.65963 12.0394 7.02128
288 2 7.67839 13.7334 9.55425
394 2 9.6911 11.6919 5.42442
240 2 12.4947 7.19607 6.6531
445 2 12.9606 9.66927 7.26846
352 1 12.8755 8.60753 6.08249
33 2 11.8091 8.92606 4.96986
313 2 10.4223 7.42706 9.15517
343 1 11.91 13.7019 6.79693
494 2 10.4202 13.4243 7.30596
405 2 12.6073 12.2834 6.98566
36 2 10.6571 10.9853 7.7679
228 1 12.2944 10.9634 7.91541
276 2 12.7073 11.3059 9.47317
583 3 13.2988 11.8799 3.55693
214 2 14.3124 8.56696 5.23587
56 1 14.7823 7.77945 3.97505
132 2 18.0336 9.33833 6.30409
159 2 16.2494 7.82713 3.23091
317 1 19.5485 9.72658 6.4954
466 2 15.3328 13.6766 9.27314
221 2 19.7021 11.3035 6.69294
579 4 15.2455 6.93267 7.35359
582 4 16.6754 7.73021 10.2347
584 4 14.1571 12.2867 3.43774
425 1 20.715 7.24213 7.74827
207 2 25.5431 8.73909 5.3
460 1 26.048 7.95883 9.57477
3 1 20.2948 9.23618 3.53903
357 2 22.3834 7.21366 7.40744
96 2 24.633 7.36436 8.97534
387 2 20.1283 8.74585 7.64397
61 2 23.0494 9.67131 5.50922
261 2 23.3161 7.32976 4.53432
326 1 24.0475 8.73852 4.64265
167 2 20.272 9.18602 5.1078
541 1 22.3522 10.8605 9.40346
85 2 22.0818 12.0544 6.16911
91 1 23.1948 10.9201 6.50884
325 1 25.2455 13.1995 6.51897
503 2 24.5806 11.7143 6.26377
133 2 22.3136 12.4454 9.32153
306 2 21.1864 13.3239 3.90356
162 2 22.9899 10.4232 7.99736
512 2 25.2869 13.3675 8.14053
515 1 20.6126 12.5038 6.35978
185 2 25.369 11.5237 9.91978
191 1 21.7421 13.7297 10.1198
275 2 20.7905 10.4698 9.66169
487 1 -1.07371 14.6072 7.58206
107 2 -0.740153 14.1322 9.06385
458 2 -2.64215 14.398 7.2442
539 2 -3.3745 15.129 4.8883
37 1 -3.89976 14.6511 6.27131
112 2 -0.688293 16.1184 7.32575
64 1 -2.99908 18.5664 5.69792
139 2 -2.55104 17.1381 8.80741
451 1 -1.23157 17.4385 7.97026
490 2 -0.00970215 17.9753 8.95115
184 2 -1.75454 18.3817 6.81331
197 2 -2.39262 17.8173 4.3829
547 2 0.0520849 16.8836 3.82645
475 2 -3.04339 20.1454 5.40856
447 2 -4.48068 18.0505 6.13634
286 2 -4.93995 15.6756 6.9502
390 1 -3.12412 17.5532 10.2502
327 1 -1.14909 17.9286 3.32519
397 1 -3.46084 14.8437 3.21679
4 2 -4.68502 17.1269 10.269
527 2 -2.82462 19.1569 10.2684
68 2 -0.785374 19.4755 3.2159
127 1 1.14285 15.7136 3.67336
318 1 1.53267 17.4514 8.83203
250 2 1.69714 15.8241 8.96856
206 2 1.93669 15.5562 5.0871
427 2 1.97184 18.0134 7.38165
393 2 4.01699 14.9733 9.42166
436 2 6.03454 18.8431 8.64846
514 1 3.34647 18.1294 6.60426
241 2 2.89732 14.2979 7.13779
60 2 2.63893 17.9836 9.861
42 2 5.11607 19.3167 3.41824
415 1 3.25721 15.2537 5.93133
195 2 7.12601 14.7726 7.10346
287 2 6.27756 16.3748 9.72363
296 2 3.20762 18.4021 5.04038
69 2 4.45707 20.5048 9.77954
524 1 2.61392 14.5158 8.76011
183 1 3.56717 19.5122 3.89496
156 1 5.50286 15.1993 3.8901
298 1 6.85064 17.8634 9.55863
102 1 4.97866 20.1109 8.32847
171 2 3.97164 16.6053 6.66827
143 2 6.65429 15.9782 4.77322
58 2 4.39548 14.7104 4.96526
27 2 4.10533 19.385 7.20898
533 1 6.74776 19.6516 3.43014
430 2 7.52914 17.4258 6.69015
131 2 9.17597 15.6017 5.73986
176 2 8.29681 20.1383 7.22099
12 1 7.60537 15.9469 6.0948
360 2 9.57226 18.503 5.66885
331 2 7.19574 19.4252 4.98934
75 1 8.07411 18.8837 6.20503
553 2 9.51575 15.1869 3.22049
333 2 11.4907 14.3415 5.27303
105 2 12.9533 14.5908 7.66194
470 1 10.5846 18.2934 4.47888
179 2 11.0573 16.8441 4.51435
2 1 10.386 15.382 4.61949
592 5 11.2133 18.6661 7.92795
593 6 12.3793 18.6328 8.00729
601 5 12.6158 20.0933 4.97899
602 6 13.1485 20.6564 4.1038
20 1 14.0908 14.5237 8.78983
404 2 17.0756 18.1841 8.90817
154 1 17.6989 19.3916 7.98566
525 1 16.7237 19.4295 5.13197
364 2 15.6212 18.4004 4.67393
59 2 16.6776 19.6817 6.7162
319 2 13.8951 15.566 9.96936
268 2 17.7421 20.66 8.97458
193 2 18.231 18.843 4.85869
294 2 19.2491 19.0146 7.68064
316 1 19.5635 19.1473 4.02008
134 2 18.6161 14.8563 8.55884
594 5 13.5453 18.6 8.08656
63 2 23.599 20.4915 8.98541
28 1 20.4249 17.975 8.10194
122 2 20.3443 13.9793 6.84826
208 1 22.5297 19.8572 4.72281
57 1 25.9082 17.1338 6.76558
16 2 21.2617 14.8637 9.0789
277 2 23.1134 20.0604 6.22752
377 2 24.7721 15.5504 3.53631
540 2 25.3189 17.5593 8.22557
30 1 25.4386 17.4901 9.82023
455 2 24.7291 16.932 5.70187
289 1 24.0686 15.6956 4.9654
474 2 22.4893 15.6537 4.7615
98 2 20.0495 17.7788 9.72712
450 2 21.0957 19.0086 4.67863
253 1 22.5439 20.185 7.78443
464 2 21.8788 18.7836 8.14459
148 2 23.573 18.9524 3.8199
479 1 20.0919 15.1176 7.98129
67 2 24.4293 14.3005 5.77067
419 2 20.3687 16.5682 7.40466
308 1 21.4219 14.891 3.96188
481 2 -2.5147 3.51949 13.2472
371 1 -4.11121 3.62252 12.9332
46 1 -1.55646 3.55736 14.554
293 2 -0.121363 2.89002 14.5031
217 1 0.644935 1.46309 14.675
556 2 -2.46741 2.73706 15.5921
468 2 -1.49715 5.10791 15.1837
374 2 -4.26562 4.57843 11.6467
264 1 -0.307786 6.23041 15.1923
32 2 -1.1522 6.16239 11.4664
234 2 -0.254972 0.487869 15.5585
146 1 -3.51432 1.94153 16.5547
158 2 0.603892 0.893809 13.1755
426 1 -0.118364 0.197217 11.9234
498 1 -1.06347 0.161336 16.9826
508 2 -2.62428 0.578811 16.8459
283 2 -4.73568 5.35214 16.5793
341 2 -0.358012 3.69422 10.5869
135 2 0.24907 0.961215 10.5625
359 2 -4.84675 1.3941 15.7759
166 2 -4.859 4.17372 14.2342
205 2 -4.99198 2.31003 12.5161
461 1 -5.39519 5.38312 10.8763
260 2 -1.69643 0.153179 12.0219
422 2 -3.56885 0.818161 10.3246
224 2 1.03654 5.30782 15.1578
255 1 3.77567 0.894102 15.1725
349 2 2.28481 1.53097 15.1308
344 1 2.57818 5.60494 14.9646
566 2 2.86356 5.5002 13.343
558 2 3.33672 4.57888 15.9596
41 2 5.76845 3.50511 12.5061
236 1 4.72396 2.62268 11.651
19 1 2.77984 4.74288 12.013
383 2 6.41044 6.15937 12.5573
354 1 6.88805 4.63997 12.6769
569 1 6.74222 1.46827 15.8078
517 2 3.25348 3.25347 12.0553
189 2 4.45664 1.04968 11.9972
302 2 5.16813 1.63236 15.3744
151 2 6.89169 0.333991 16.9791
49 2 6.45831 5.29617 16.6825
545 2 2.50624 5.28237 10.5853
434 1 8.82209 3.84492 10.4294
282 1 9.01711 0.162261 14.0548
13 2 9.64146 2.4706 10.5862
169 2 7.32216 2.91812 16.1887
384 2 7.36411 4.49929 14.2503
571 2 8.19789 4.35744 11.79
564 2 9.13495 4.94713 16.0261
125 2 7.66118 0.950726 14.5215
145 1 7.57151 4.43553 15.8525
299 1 11.4062 2.23912 14.9461
446 2 12.6808 1.94599 16.0135
358 2 11.0908 3.75562 14.7186
281 1 10.591 5.2097 15.2988
142 2 11.783 5.61376 16.4309
269 2 10.424 1.13738 14.3986
330 2 10.5012 6.46624 14.3139
595 5 12.3906 0.262444 13.3745
598 5 13.3029 3.9363 10.9703
45 2 16.4209 2.07962 13.5138
478 1 17.7047 1.90733 12.5777
486 2 17.34 4.37457 16.1237
243 2 17.2957 1.26033 11.1989
181 1 13.8605 2.62246 16.9239
23 2 17.9526 1.6139 16.9062
108 2 17.9295 5.43515 13.6919
321 2 18.3444 6.76142 15.9634
239 2 18.8235 0.999816 13.3464
119 1 18.5699 4.80839 12.4345
267 2 18.479 3.28261 12.2575
192 1 18.3052 5.27611 15.2424
82 1 19.4892 1.24155 17.0978
177 2 19.4261 5.69257 11.4879
337 2 15.2385 1.95526 17.3348
581 4 17.0643 6.43885 10.9225
586 3 14.6838 5.9127 15.2693
587 4 15.641 5.91384 15.2681
599 6 13.7395 2.91222 11.3274
600 5 14.1762 1.88834 11.6849
126 2 21.3 0.0679225 13.5073
570 1 25.8345 4.91516 15.4023
120 1 25.8626 0.18833 15.0838
507 1 23.1303 4.14402 16.4087
477 2 25.0978 0.696138 13.7471
230 2 25.1091 5.71779 11.9909
382 2 22.2355 3.79491 15.1513
100 1 25.1237 1.60275 12.4096
456 2 24.8221 0.754864 11.0451
347 2 19.8257 4.65983 15.0331
542 1 21.2259 4.5458 14.1772
130 2 21.2015 3.55243 12.9262
31 2 20.1979 1.1688 15.6782
431 2 21.6359 1.40588 11.417
312 2 22.841 5.7002 16.8489
523 1 19.9461 0.286217 14.3224
138 1 25.0645 6.7977 13.283
339 2 22.3144 3.80207 10.64
454 2 25.0084 6.07977 14.6999
557 2 21.7299 6.0014 13.7424
444 1 22.2972 2.83926 11.9288
71 2 23.7443 2.58224 12.5233
180 2 24.6732 3.94941 16.0443
237 1 21.6047 -0.0872342 11.9197
550 1 -3.88044 8.50281 13.6443
510 2 -0.450528 7.01991 13.7956
559 1 -1.18124 7.50359 12.4398
441 2 -2.64082 8.03455 12.7513
44 2 -0.165127 8.65466 11.9126
137 1 -3.22421 9.38667 16.5719
194 2 -3.32906 8.51877 15.2173
211 2 -0.154216 7.31542 16.4336
121 2 -5.18023 7.6227 13.287
51 2 -4.33664 10.0748 13.5396
111 1 -0.106516 8.79548 17.1011
440 2 -1.66676 9.31907 17.0084
381 1 -4.00498 11.6316 13.5624
72 2 -0.568994 13.4185 13.6682
493 2 -2.41643 11.629 13.9163
164 1 -0.968959 12.0316 14.3713
18 2 -0.929378 12.335 15.9179
9 2 -3.59164 10.9457 16.471
433 1 -4.4033 13.7591 11.3929
536 2 -4.33547 12.3707 12.2175
565 2 0.205419 12.8015 11.2217
39 1 -0.771989 13.4572 17.0511
52 2 0.146812 10.897 14.0589
530 2 -4.80863 12.345 14.8032
263 1 -4.67341 12.1387 16.3743
391 2 -4.2801 13.4599 17.1995
170 2 -2.13626 10.425 10.4733
465 2 0.83816 9.77784 16.2572
442 1 0.906492 9.02295 10.7553
78 2 1.86958 7.72967 10.6759
342 2 1.89916 10.2398 10.806
562 2 6.91472 8.76807 16.8907
369 2 4.67248 8.20273 13.6973
157 2 4.41439 9.19123 16.0789
386 2 2.5671 9.76957 14.2571
173 1 3.61015 8.56673 14.7719
310 2 2.8924 7.18686 15.2926
575 2 6.68897 9.04964 11.7551
93 1 5.36621 8.73588 17.2909
160 2 1.9855 12.2109 15.2438
435 1 1.44445 10.6822 15.0144
567 2 4.54237 10.4065 11.3613
249 2 4.03594 12.5114 13.8625
495 2 6.43507 13.4137 14.0107
204 2 6.05935 10.9032 13.4607
492 2 6.84527 11.7046 11.0763
101 1 6.09854 10.4863 11.8711
453 1 2.77634 13.4038 14.4159
262 1 7.10342 13.3164 11.0401
463 2 5.83868 11.8272 15.8516
190 1 5.53524 12.1311 14.3216
163 1 3.33589 10.6426 10.3942
38 1 5.99234 12.4192 17.2795
362 1 8.51758 8.54921 17.0955
295 2 7.66823 7.02739 10.6494
418 2 9.2339 8.17482 15.7342
406 1 9.70886 7.90181 14.2044
538 2 8.39489 7.6933 13.3135
300 1 7.23576 7.52378 12.1569
273 1 10.2757 12.6695 15.2723
235 1 7.98766 13.7149 13.8703
279 2 9.8713 12.2252 16.8266
528 2 8.99961 12.5631 14.3559
526 2 13.0438 9.40819 14.4318
555 2 10.6013 9.18533 13.6043
172 1 11.9328 10.2901 13.7307
248 2 12.4538 10.834 12.1842
320 2 11.2801 11.5602 14.6283
585 4 13.0027 11.6797 16.831
25 2 14.1562 9.48011 10.5576
5 2 18.6973 8.95672 17.2793
519 2 19.324 8.28901 10.5704
372 1 17.8453 7.56354 17.2384
232 2 17.5343 13.1348 11.2117
254 1 15.9168 13.289 10.8895
421 2 14.9103 11.9904 11.1718
84 1 13.503 10.9308 10.8703
202 2 18.102 12.5343 15.743
482 2 19.7689 10.6833 14.6027
410 2 19.1375 12.8657 13.3451
109 1 18.9869 13.656 11.9933
388 1 19.3719 12.2118 14.8785
580 3 16.3314 6.87302 10.4859
588 4 14.4427 6.83904 15.27
589 5 15.6647 13.0436 16.0082
590 6 15.1865 12.069 15.5743
591 5 14.7088 11.0943 15.14
345 1 20.8578 10.1774 13.5115
141 2 23.6572 7.57733 13.0435
459 2 21.3254 8.04936 17.1611
182 1 22.1035 7.40093 12.9763
472 2 25.6431 9.10043 10.7222
198 2 21.4863 7.3029 11.5117
86 2 21.3246 8.62799 13.6795
506 1 20.1682 6.82944 10.6371
398 1 19.9072 9.69733 10.6158
186 2 23.2543 10.1317 10.5079
546 2 24.0914 9.45717 17.3003
266 2 20.0818 10.2131 12.0978
229 2 22.1478 11.1019 13.3621
106 2 20.6896 10.7742 17.3306
10 1 24.7901 10.4286 10.9714
322 2 24.6118 11.0399 12.4876
552 1 21.4241 12.1632 16.9569
280 1 24.1759 10.8856 16.5736
443 1 23.6794 11.5371 13.6991
252 2 25.5511 11.6409 16.9813
150 2 20.802 12.6966 15.5686
365 2 23.754 13.1262 14.0793
314 2 23.0156 11.8818 16.952
554 2 24.139 10.7317 15.0068
215 2 20.4558 13.3979 11.1017
380 1 0.344505 13.831 12.4519
413 2 -0.435093 15.229 12.0106
55 1 -1.97324 15.619 12.266
411 2 -3.06174 14.5337 11.8257
576 2 -2.11092 15.9958 13.7625
116 2 0.296482 19.4687 12.0799
376 2 -2.54262 18.6669 14.0472
43 2 -1.63865 17.3436 16.0339
334 1 -1.68584 17.405 14.4236
549 2 -0.152814 17.5834 13.8438
123 2 -4.07157 20.0534 12.3572
201 1 -4.08182 19.0063 13.5852
485 2 -2.27433 16.9407 11.4107
500 2 -4.43936 15.9484 16.7017
284 2 -4.73681 19.8116 14.8266
407 1 -2.99284 20.4609 11.2224
274 2 -4.81351 17.6566 13.3009
115 2 -1.94839 14.5166 16.7941
242 2 0.595681 14.2618 17.2917
21 1 0.948196 18.4282 13.0636
402 2 1.88035 13.9182 13.1456
483 2 1.75034 19.1629 14.2915
94 2 2.01816 17.46 12.3474
99 2 2.18506 16.2504 16.7138
303 2 6.19757 14.0013 17.2259
113 2 4.79013 16.1342 17.0185
476 2 6.27116 20.1172 11.6331
209 1 3.22929 17.7241 11.3824
423 2 3.48601 14.7131 15.1634
104 2 4.32059 16.4631 11.4463
50 2 3.6947 17.4415 15.1057
144 2 3.8403 19.1779 11.8509
366 2 3.99178 20.1749 14.9199
389 1 3.5927 16.0988 15.9233
361 1 4.74157 20.4526 11.3678
278 2 5.70736 14.1861 11.1637
246 1 5.15363 15.4867 10.429
516 1 3.05251 18.9229 15.1996
572 2 2.68859 19.2189 16.745
62 2 10.1247 18.9749 17.2983
87 2 9.57374 17.0851 15.6232
247 2 9.13102 19.6924 14.9418
448 2 7.63172 18.6049 16.6741
521 2 8.24641 14.9292 14.8225
480 1 9.10905 18.5586 16.0923
370 1 9.55181 15.4455 15.7545
117 2 8.83564 20.403 12.5641
152 2 8.10158 13.863 12.2541
563 2 7.86828 18.5919 10.5225
505 1 7.90165 20.0826 11.2834
449 2 10.6689 14.2526 15.2729
596 6 11.8679 20.2467 13.9741
597 5 11.3452 19.3901 14.5742
348 2 16.0653 19.7151 10.6755
140 2 15.3712 14.508 11.7603
414 2 15.7988 17.0727 11.143
222 2 13.4674 16.3831 12.3998
462 1 14.6079 15.9478 11.373
399 1 16.7058 18.2464 10.5478
70 2 18.1197 18.4254 11.3301
488 1 19.7128 18.4053 11.1436
537 2 18.9333 17.2123 14.4081
373 2 19.44 19.6762 14.7696
77 2 19.5002 18.2811 16.881
34 2 18.9063 15.2133 12.3002
353 1 19.6626 16.2861 13.2235
271 1 24.1281 20.2544 10.5072
428 2 24.9849 18.9267 10.4636
304 2 20.2839 17.4084 12.289
403 2 24.7611 20.3756 16.1584
7 2 23.1158 14.2408 10.8589
531 2 23.8579 15.5272 12.9713
251 2 21.2914 17.5085 15.3165
155 1 25.6252 16.0943 16.3474
218 1 19.7881 18.2376 15.341
187 2 22.8902 15.2021 15.394
401 2 25.7366 14.4351 11.6721
118 1 23.9887 14.6853 14.3328
561 1 24.3208 15.1521 11.4865
26 2 25.3845 15.1227 15.053
272 1 21.4619 15.9068 15.3906
429 2 20.323 19.9041 11.3299
315 2 20.8339 15.5449 16.8095
168 2 24.9797 17.5816 16.1678
467 2 22.9234 19.9527 11.554
110 1 24.4674 18.9645 16.7408
40 2 20.7176 15.4612 14.0707
124 2 24.4537 16.3155 10.4496
ITEM: TIMESTEP
100
ITEM: NUMBER OF ATOMS
603
ITEM: BOX BOUNDS pp pp pp
-5.5120844385074523e+00 2.6097662150105961e+01
-1.2771230207837192e-01 2.0713290013678069e+01
3.2117523930885632e+00 1.7373825318513106e+01
ITEM: ATOMS id type x y z
346 2 0.00488128 1.93697 6.26972
417 1 -1.11361 1.99997 5.12128
35 2 -1.09235 3.46903 4.67035
568 1 -3.3281 1.36866 9.0375
409 2 -2.52412 1.66366 5.72657
8 2 -0.624758 1.09046 3.93367
178 2 -1.88759 2.11026 9.03926
328 2 -2.74175 5.34763 4.2929
103 2 -1.95523 4.95818 6.676
136 1 -1.55877 4.88623 5.19543
17 2 -0.328092 5.84245 5.02021
437 2 -2.22223 5.27486 9.20896
219 1 -2.71642 5.77735 7.79365
29 1 -4.05267 4.65212 3.78731
291 1 -3.52475 0.538561 6.16847
351 2 -4.31658 5.81171 7.36463
338 2 -3.41423 0.428927 7.78055
513 2 0.344599 5.91603 9.45982
560 1 -0.38189 2.41293 9.59539
432 2 -4.71427 2.21556 9.03951
509 2 -3.93828 3.07494 3.51749
89 2 -5.03231 0.704215 5.7658
223 2 -5.12011 4.86395 5.0198
128 1 -0.925764 5.31364 10.1588
80 2 -4.9704 6.82123 10.4072
199 1 1.18767 2.71313 6.96815
212 2 0.779441 2.65189 8.53925
471 1 1.21797 5.45707 5.3018
522 2 1.21232 4.21202 6.37643
336 1 1.71624 6.67327 9.77312
520 2 1.90758 5.01003 3.98691
285 2 2.46055 7.23784 8.51234
375 2 5.02409 2.74736 10.1476
258 2 5.92144 5.119 9.50872
392 2 3.3453 0.352321 4.37539
270 2 5.80576 3.2049 7.75618
76 2 2.02207 6.57662 6.03613
196 2 5.63341 0.560476 7.74526
48 1 3.23439 4.28924 3.36526
457 2 3.1967 2.83243 3.94145
213 2 6.73411 5.89711 4.97791
290 1 6.01857 1.84903 6.82992
297 2 2.53931 1.97239 6.35302
11 1 6.72041 6.49247 9.23646
227 1 5.93762 3.58993 9.25417
238 2 4.96175 1.96695 5.70117
499 2 4.47035 4.91095 4.01985
226 1 5.74859 5.76682 3.69133
210 1 3.49044 1.74576 5.0851
378 2 9.5204 4.78704 9.46101
332 2 7.45298 3.15155 9.66228
54 2 7.88404 6.18104 8.19073
452 1 8.73923 0.808537 6.82522
74 1 9.52587 0.915877 9.77045
301 2 9.78701 0.769764 5.7089
396 2 7.5304 1.69582 6.4614
259 2 9.26401 1.27856 8.23473
363 1 9.52504 6.01579 8.49494
324 2 8.23154 0.152521 10.359
395 2 12.8415 4.70356 7.14256
149 2 11.9323 5.53796 4.90882
66 1 11.8326 5.72445 6.52017
14 2 10.8011 0.00122747 9.91841
81 2 10.3345 5.70101 7.13267
165 1 12.7025 5.511 3.57158
257 2 13.5222 4.07659 3.36826
24 2 17.5256 2.56347 4.85158
174 1 16.706 1.63903 3.66864
200 1 19.8845 5.75367 5.31948
416 1 18.8894 2.98104 5.45286
368 2 18.7772 6.67029 4.68332
535 2 19.4624 4.29628 4.9913
153 2 19.6127 2.3239 6.6994
518 2 16.5194 0.241003 4.32675
350 2 13.9106 6.6342 3.53092
340 2 19.7786 -0.104884 3.21897
496 1 17.2157 0.0825379 10.4681
577 3 17.4249 5.84776 8.22173
578 4 16.9065 6.3912 8.81518
603 5 13.2948 18.7908 3.5448
90 2 21.9393 2.42695 5.71609
534 1 21.9012 2.11102 4.21115
408 1 21.1505 2.19535 7.13454
6 2 22.3541 0.582842 4.00607
385 2 20.7709 6.63658 9.27668
511 2 22.7876 3.18689 3.40057
92 1 25.7607 3.35763 8.83331
355 2 23.3956 5.27985 8.70198
335 1 22.9066 3.81943 9.15904
97 2 21.2823 5.9728 4.57441
543 1 22.1764 6.80708 3.62484
502 2 21.7351 3.29184 8.17393
501 2 20.3131 2.19247 3.72752
309 1 23.8895 6.61399 7.94864
95 2 21.5698 0.761345 7.66154
53 2 20.217 6.01726 6.7981
231 2 25.9789 4.4788 9.90658
329 2 24.2559 2.9352 9.02954
305 2 25.7721 3.86033 7.31595
491 2 24.7826 6.09793 6.73655
497 1 26.1325 5.15746 6.54488
203 2 0.403355 8.80066 4.25054
83 1 -3.26397 8.69437 7.78015
15 2 -2.38045 7.37738 7.94448
161 2 -3.7522 8.6222 6.28022
420 2 -0.244227 9.30729 9.76433
484 2 -2.17789 9.8876 8.20461
323 2 -3.8682 8.62637 3.68412
245 1 -4.60754 9.08517 5.01633
438 2 -4.51442 8.78078 8.70385
1 1 -1.21043 10.4641 9.31252
129 1 0.355698 13.0067 9.42067
88 2 -2.43946 11.7961 5.99639
529 2 -0.239404 11.6508 8.85411
265 2 -0.460114 13.4057 6.28673
469 1 -0.884881 12.1788 5.47052
220 2 -1.07247 12.6307 3.98275
551 1 -4.00246 11.6689 6.30101
188 2 0.173094 10.9853 5.61669
225 2 -4.16559 13.1618 9.8394
356 2 -4.41867 11.4335 7.81835
574 2 -4.77149 13.1467 6.14116
256 2 -4.57853 10.6553 5.27557
379 1 -5.1541 12.2563 8.97397
532 1 1.15603 9.82425 5.20456
311 2 1.67777 9.00962 6.5818
216 2 5.25518 7.19034 3.3329
504 2 6.82155 8.12134 6.29279
292 2 4.60321 9.44161 4.28283
412 2 4.12992 8.04297 6.72187
147 1 5.66615 8.44419 7.31083
79 2 5.78219 7.53807 8.59857
47 1 2.51754 7.7003 6.98567
548 2 5.7204 9.9033 7.87479
175 2 1.86313 13.4306 8.95441
114 2 4.07303 11.1576 6.39859
489 1 3.94283 10.795 4.83562
473 2 2.39543 10.605 4.57626
424 1 4.76666 11.2574 7.77639
400 2 5.64648 12.5325 7.91247
233 2 4.86134 11.8994 4.15972
439 2 3.73764 11.0672 9.01935
544 2 8.33346 7.67775 4.12619
307 1 7.59985 7.11548 5.39402
367 2 9.08144 9.9683 3.49221
73 1 7.06124 13.339 7.99626
244 1 8.9258 11.5302 3.74273
22 2 8.16115 12.3653 7.27098
573 2 7.33218 11.8781 3.60709
65 1 9.65103 12.0207 6.79612
288 2 7.39357 13.5743 9.53034
394 2 9.52389 11.8993 5.19567
240 2 12.4117 7.19494 6.78693
445 2 12.974 9.6788 7.2381
352 1 12.9236 8.54023 6.20468
33 2 11.9349 8.80165 5.00979
313 2 9.98673 7.27158 9.21466
343 1 12.0235 13.6474 6.71373
494 2 10.5211 13.2946 7.28185
405 2 12.7142 12.236 6.93308
36 2 10.6351 10.8816 7.4598
228 1 12.2226 10.9177 7.82312
276 2 12.5511 11.2116 9.39037
583 3 13.4917 11.9215 3.52279
214 2 14.3729 8.0736 5.49083
56 1 15.0038 7.46441 4.21497
132 2 18.0444 9.43902 6.26567
159 2 16.4554 7.42971 3.68811
317 1 19.6121 9.61238 6.41396
466 2 15.1905 13.7228 9.36147
221 2 19.8959 11.1398 6.80722
579 4 16.7764 5.34692 7.72688
582 4 15.0947 6.68388 10.5711
584 4 13.7827 12.7567 17.3187
425 1 20.9765 7.10357 7.71827
207 2 25.477 8.70806 5.03841
460 1 26.0224 8.06844 9.65165
3 1 20.2406 9.22766 3.50651
357 2 22.4982 7.17476 7.42518
96 2 24.7455 7.5806 8.7853
387 2 20.2616 8.51165 7.43522
61 2 23.2701 9.75065 5.73946
261 2 23.3593 7.47061 4.3833
326 1 23.9442 8.90443 4.60476
167 2 20.3878 9.21988 5.08913
541 1 22.2947 10.9204 9.61144
85 2 22.2203 12.1186 6.25868
91 1 23.2599 11.0445 6.65003
325 1 25.2868 13.2001 6.66378
503 2 24.6474 11.7997 6.42756
133 2 21.9718 12.4156 9.86667
306 2 21.3063 13.3371 3.89287
162 2 22.883 10.6971 8.12831
512 2 25.4067 13.2935 8.24794
515 1 20.7192 12.4402 6.46198
185 2 25.5122 11.4977 9.94473
191 1 21.4852 13.873 10.4229
275 2 20.977 10.1193 9.63012
487 1 -1.11549 14.4483 7.33772
107 2 -0.621395 14.1149 8.79158
458 2 -2.65894 14.2063 7.20114
539 2 -3.42456 14.9346 4.85288
37 1 -3.83791 14.5442 6.30511
112 2 -0.77286 15.9307 7.03444
64 1 -2.93851 18.4662 5.73943
139 2 -2.39407 16.8284 8.89286
451 1 -1.24696 17.2076 7.81376
490 2 -0.0204303 17.7581 8.68521
184 2 -1.86225 18.211 6.84416
197 2 -2.43895 17.9344 4.34818
547 2 -0.0472789 17.1879 4.011
475 2 -3.07559 20.0027 5.54513
447 2 -4.40484 17.9757 6.28258
286 2 -4.78011 15.5982 6.98718
390 1 -2.97688 17.5559 10.1967
327 1 -1.24017 18.0092 3.31629
397 1 -3.58601 14.7639 3.28729
4 2 -4.57195 17.3012 10.2895
527 2 -2.54255 19.1009 10.2559
68 2 -0.897479 19.5451 17.1657
127 1 1.02601 16.0179 3.82618
318 1 1.55834 17.6978 8.77085
250 2 1.87604 16.0854 8.72941
206 2 1.86548 15.7119 5.12965
427 2 2.15978 18.3085 7.45631
393 2 4.09091 15.0657 9.33854
436 2 6.48592 19.0362 8.96532
514 1 3.45643 18.3661 6.54761
241 2 3.11353 14.6252 7.04798
60 2 2.37803 18.2315 10.0176
42 2 4.9275 19.1559 3.50703
415 1 3.3064 15.5566 5.75149
195 2 6.98066 14.7321 7.14572
287 2 6.32154 16.6282 9.95572
296 2 3.00205 18.9296 5.1529
69 2 4.72191 20.457 9.89296
524 1 2.73346 14.7287 8.58788
183 1 3.46127 19.6987 3.89881
156 1 5.45115 15.2638 3.73845
298 1 7.00666 17.9829 9.95625
102 1 5.35039 19.9909 8.47476
171 2 3.92315 16.9167 6.23878
143 2 6.60761 15.8361 4.65726
58 2 4.25475 14.8223 4.65472
27 2 4.4562 19.1644 7.40802
533 1 6.48525 19.4557 3.48011
430 2 7.51405 17.342 6.56934
131 2 9.03819 15.4839 5.53816
176 2 8.09148 20.0895 6.9936
12 1 7.48722 15.7951 6.03612
360 2 9.50935 18.5173 5.65198
331 2 7.10912 19.249 4.92557
75 1 8.04213 18.7952 6.12322
553 2 9.67183 14.9439 17.2857
333 2 11.4724 14.3811 5.28877
105 2 12.9665 14.5503 7.70697
470 1 10.3588 18.1449 4.43914
179 2 10.9945 16.7539 4.46317
2 1 10.3372 15.3029 4.57926
592 5 11.2327 18.5761 7.95096
593 6 12.3933 18.6715 8.08305
601 5 12.9355 20.0125 5.44262
602 6 13.1481 19.2844 4.5731
20 1 14.0003 14.6302 8.86826
404 2 16.8328 18.4105 8.84096
154 1 17.7697 19.4147 8.07558
525 1 16.9392 19.7372 5.17986
364 2 15.9391 18.5655 4.87876
59 2 16.9864 19.9322 6.75245
319 2 13.8776 15.7595 9.92329
268 2 17.9168 20.6487 9.06867
193 2 18.4406 19.3107 4.79557
294 2 19.2432 18.934 7.74951
316 1 19.6797 19.3146 3.83593
134 2 18.8265 15.0095 8.45941
594 5 13.5566 18.7316 8.20646
63 2 23.6826 20.5603 8.73095
28 1 20.5119 18.0259 8.1627
122 2 20.4189 13.933 6.79359
208 1 22.4505 19.9741 4.67786
57 1 26.111 16.9791 6.85141
16 2 21.3113 14.709 9.07924
277 2 22.9552 20.0931 6.13908
377 2 24.8659 15.3631 3.61434
540 2 25.4639 17.5009 8.19852
30 1 25.5318 17.4944 9.8102
455 2 24.9923 16.7247 5.73667
289 1 24.2116 15.5482 5.03653
474 2 22.6566 15.5921 4.73321
98 2 20.4781 17.661 9.67542
450 2 21.0644 19.2063 4.63275
253 1 22.5421 20.2966 7.64864
464 2 21.7924 18.9234 7.95508
148 2 23.5933 19.1382 3.84903
479 1 20.3222 15.097 7.90205
67 2 24.4206 14.2916 5.91736
419 2 20.573 16.6238 7.39484
308 1 21.5426 14.91 3.86276
481 2 -2.73415 3.40453 13.3925
371 1 -4.30836 3.64649 13.0088
46 1 -1.71743 3.61052 14.6738
293 2 -0.216895 2.95223 14.5744
217 1 0.560153 1.52258 14.5638
556 2 -2.53439 2.73449 15.7109
468 2 -1.4941 5.08955 15.1141
374 2 -4.31698 4.86482 12.034
264 1 -0.40076 6.2408 15.1551
32 2 -1.09691 6.33244 11.3928
234 2 -0.33666 0.549427 15.5224
146 1 -3.6571 1.9135 16.6074
158 2 0.488805 1.23741 12.9957
426 1 -0.219478 0.3221 11.9294
498 1 -1.14269 0.267237 16.8671
508 2 -2.7335 0.625362 16.8806
283 2 -4.65794 5.37418 16.654
341 2 -0.635969 3.79053 10.4563
135 2 -0.0504773 1.16179 10.5332
359 2 -5.00217 1.44016 15.8724
166 2 -4.84437 4.22375 14.355
205 2 -5.24741 2.55273 12.3662
461 1 -5.37966 5.48903 11.113
260 2 -1.74382 0.100493 12.1232
422 2 -3.42785 0.607916 10.4454
224 2 0.958023 5.47799 15.1706
255 1 3.69001 0.924743 14.9043
349 2 2.22883 1.46906 14.9967
344 1 2.49655 5.63157 14.9504
566 2 2.74182 5.51462 13.3474
558 2 3.32663 4.56758 15.8968
41 2 5.78686 3.41 12.5298
236 1 4.69533 2.63665 11.7111
19 1 2.73727 4.86708 11.9453
383 2 6.53974 6.02352 12.7068
354 1 7.0397 4.54654 12.7383
569 1 6.57725 1.3354 15.9741
517 2 3.25991 3.38034 12.0082
189 2 4.47057 1.09179 12.0569
302 2 5.06792 1.46111 15.3455
151 2 6.55232 0.228679 17.1886
49 2 6.56987 5.24845 16.6405
545 2 2.56672 5.51925 10.588
434 1 8.78899 3.68063 10.3389
282 1 9.02357 0.109546 14.3724
13 2 9.59929 2.28689 10.5912
169 2 7.1014 2.77903 16.4194
384 2 7.39228 4.30215 14.3002
571 2 8.23539 4.28486 11.7426
564 2 9.1126 4.65918 16.2236
125 2 7.71436 0.774656 15.028
145 1 7.51213 4.25551 15.862
299 1 11.3605 2.16006 15.1387
446 2 12.6505 1.99425 16.0952
358 2 11.1034 3.6851 14.8821
281 1 10.5654 5.14156 15.4701
142 2 11.7322 5.55588 16.5052
269 2 10.2253 1.13539 14.7199
330 2 10.1363 6.40813 14.5415
595 5 13.1039 20.4744 12.8409
598 5 13.172 3.91617 11.1112
45 2 16.9568 1.96219 13.7016
478 1 18.0851 1.85969 12.6411
486 2 17.7318 4.18167 15.9409
243 2 17.6334 1.37919 11.1803
181 1 13.8244 2.60676 17.0201
23 2 17.956 1.51102 16.8014
108 2 18.4395 5.59807 13.7487
321 2 18.5008 6.55002 16.2625
239 2 19.1579 0.809169 13.2039
119 1 18.7814 4.81956 12.47
267 2 18.6595 3.29772 12.463
192 1 18.7232 5.25906 15.2886
82 1 19.5152 1.37003 16.7577
177 2 19.3998 5.62154 11.3379
337 2 15.3043 2.13964 17.1864
581 4 15.2578 8.18895 10.5674
586 3 14.8203 6.12318 13.1046
587 4 15.2246 6.51783 13.8773
599 6 13.7492 2.91116 11.2691
600 5 14.3268 1.90606 11.4348
126 2 21.5778 -0.105368 13.2861
570 1 25.8839 4.94951 15.5405
120 1 25.9593 0.251451 15.0438
507 1 23.366 4.20934 16.4888
477 2 25.1904 0.746364 13.7449
230 2 25.038 5.80485 12.1496