ITEM: TIMESTEP
0
ITEM: NUMBER OF ATOMS
3392
ITEM: BOX BOUNDS pp pp pp
-2.3164528610000001e+00 1.3210439682000001e+01
-2.6159999999999997e+01 2.6159999999999997e+01
-2.6159999999999997e+01 2.6159999999999997e+01
ITEM: ATOMS id type x y z
1185 1 -2.13052 -21.2765 -23.9404
1187 1 -1.07225 -21.6687 -24.7005
1190 2 0.983452 -22.4315 -24.6829
1191 1 0.0589064 -22.4921 -22.806
1192 2 1.03018 -22.747 -22.3491
1189 1 0.0798515 -22.1922 -24.1061
1195 1 -2.16726 -21.5934 -22.57
1193 1 -1.01062 -22.1842 -22.0444
3332 3 4.83446 -25.5328 -23.0046
3341 2 5.09466 -24.7591 -23.7404
2015 2 2.5209 -20.3519 -25.2478
2040 2 -2.27133 -25.4627 -21.511
2248 2 4.97744 -23.5495 -21.9016
2249 1 4.31525 -21.6497 -21.8735
2250 2 3.26495 -21.9124 -21.9517
3331 1 3.40342 -25.796 -22.8655
3334 2 2.64753 -24.5732 -24.481
1194 2 -0.692663 -22.4008 -20.9971
2247 1 5.35647 -22.5488 -21.9714
3336 2 0.335379 -25.5465 -24.3638
3335 1 1.06125 -25.8224 -23.5825
3333 1 2.35804 -25.2832 -23.6989
1186 2 12.5193 -20.8455 -24.4215
3100 2 7.66074 -22.3536 -25.829
3090 2 5.87267 -21.2472 -24.6343
2039 1 12.4033 -24.9418 -21.1097
2041 1 11.171 -25.4023 -21.4895
3099 1 7.58746 -21.2437 -25.9788
3089 1 6.64986 -20.5912 -25.2303
2544 2 9.64769 -25.6331 -23.9939
2044 2 9.01281 -25.0896 -21.2205
2043 1 10.0151 -24.637 -21.0814
2246 2 7.38099 -22.9607 -21.9903
1196 2 12.4722 -21.5604 -21.953
2244 3 8.57783 -20.5791 -21.8356
2243 1 7.09438 -20.8038 -21.5878
2245 1 6.68105 -22.1561 -21.7878
2253 2 8.86886 -20.9027 -22.855
2543 2 8.12081 -26.1213 -22.9782
2002 2 0.12454 -19.0486 -23.2045
2007 1 0.775692 -15.2826 -23.0902
2009 1 -0.336718 -15.7804 -22.4277
2010 2 -0.773663 -15.1867 -21.6678
2003 1 1.32169 -17.4809 -23.9406
2001 1 0.287245 -17.958 -23.1644
2011 1 -0.544435 -17.1504 -22.4103
2012 2 -1.46479 -17.5263 -21.9431
3103 2 5.15062 -17.4292 -22.8122
683 1 5.12574 -14.6937 -24.8216
684 2 4.25631 -14.9213 -24.2953
1586 2 -0.705681 -17.1639 -25.9117
3084 2 0.073457 -18.5313 -20.7527
2252 2 3.83542 -19.4833 -21.4393
2251 1 4.62667 -20.2453 -21.5732
2004 3 2.20266 -18.3211 -24.8583
2013 2 2.16803 -17.9889 -25.9241
2014 4 2.28618 -19.5904 -24.5097
2016 2 2.39756 -19.8972 -23.5018
2005 1 1.64189 -16.116 -23.8002
2006 2 2.42404 -15.7207 -24.4601
3092 3 5.33528 -18.5696 -24.7631
3101 2 4.62751 -19.3296 -24.5003
3102 4 5.56544 -17.6305 -23.8463
3104 2 6.18574 -16.8275 -24.2145
1498 2 12.4674 -17.2353 -20.6896
1499 1 10.421 -16.4342 -20.8756
1500 2 10.555 -15.8771 -21.8073
1490 2 8.33685 -15.8535 -20.6763
1597 2 11.4169 -15.6551 -25.2513
2241 1 6.0049 -19.8816 -21.459
2242 2 6.19957 -18.8343 -21.1095
2254 4 9.13859 -19.5989 -21.068
2255 2 9.84874 -18.8575 -21.4722
1600 2 12.9431 -18.1895 -24.4393
1599 2 11.323 -17.6967 -23.7417
1598 4 12.1817 -17.4482 -24.374
3094 2 7.58381 -17.4265 -25.8033
3091 1 6.57984 -19.2213 -25.2596
3093 1 7.58854 -18.5125 -25.8136
1588 3 12.3079 -16.3705 -25.1382
1240 2 0.967151 -10.3902 -21.2838
1239 1 1.08997 -10.7893 -22.3311
1237 1 0.0362624 -10.6448 -23.2014
1233 1 1.34087 -12.0324 -24.6452
1235 1 0.261513 -11.113 -24.459
1243 1 2.37344 -12.2516 -23.743
1242 2 2.90813 -11.5939 -21.6691
1241 1 2.24586 -11.529 -22.5664
1244 2 3.19327 -12.9748 -23.811
1245 2 -1.11052 -9.87954 -25.4723
1238 2 -0.871849 -10.0998 -22.8466
1236 3 -0.876555 -10.8862 -25.4418
2008 2 0.906796 -14.1937 -23.2095
1234 2 1.35057 -12.4529 -25.6631
1464 2 2.89477 -9.06619 -24.8448
1248 2 -1.95875 -12.8029 -25.0609
1246 4 -1.97712 -11.7032 -25.3387
673 1 6.02436 -13.9814 -24.0873
686 4 9.38812 -12.3336 -24.6231
685 2 8.80687 -13.8495 -23.3824
676 3 8.4541 -13.1023 -24.0689
675 1 7.23817 -13.5698 -24.7328
2821 1 10.4671 -12.7157 -20.7002
674 2 6.07888 -13.7983 -22.9634
2822 2 10.3637 -13.1964 -21.6258
2819 1 10.0335 -11.4003 -20.4119
2830 4 7.86386 -10.9383 -21.0733
2820 3 9.10862 -10.639 -21.3593
2829 2 9.54146 -10.6772 -22.3781
2831 2 7.32587 -11.4533 -21.8517
1052 2 11.5296 -9.50886 -21.1983
677 1 7.30409 -13.5416 -26.0973
687 2 10.4708 -12.4566 -24.396
688 2 9.18039 -11.7581 -25.4515
1247 2 12.5429 -11.3198 -25.2572
706 2 6.04622 -8.87763 -25.0992
705 1 7.14985 -9.06234 -25.3117
1056 2 -1.45853 -4.691 -21.6005
1042 2 -1.76128 -8.5232 -20.6861
1054 4 -0.87355 -4.95341 -20.6711
1055 2 -0.0808448 -4.17156 -20.6029
3227 1 5.05382 -4.77315 -23.5163
3228 2 3.98502 -5.04746 -23.4539
3386 2 4.95082 -8.24148 -21.1876
1463 1 2.62372 -8.35372 -25.6382
1461 1 2.58849 -6.979 -25.4445
1462 2 2.61539 -6.5686 -24.4751
714 2 10.0551 -8.046 -23.8146
711 1 9.87418 -8.67297 -25.8361
1041 1 12.9002 -7.93419 -20.467
1051 1 11.6228 -8.48381 -20.7234
1050 2 9.61786 -7.85647 -20.9523
1049 1 10.5333 -7.72768 -20.3633
1929 1 12.897 -3.57521 -25.7224
1930 2 11.9548 -4.27652 -25.7932
3217 1 5.45888 -3.47923 -23.8514
3225 1 6.01869 -5.72064 -23.179
3226 2 5.85029 -6.71378 -22.79
3219 1 6.8887 -3.16738 -23.8077
3223 1 7.34379 -5.37691 -23.1074
3221 1 7.81295 -4.11697 -23.4053
3222 2 8.88965 -3.93992 -23.2552
3224 2 8.05938 -6.11231 -22.6771
2415 2 5.83577 -3.09407 -20.8532
716 2 7.57745 -7.98277 -23.4419
713 1 9.33916 -8.38621 -24.5922
715 1 7.95996 -8.43229 -24.335
3218 2 4.82586 -2.68966 -24.2623
1361 1 3.78145 1.1827 -22.2983
1362 2 3.4988 1.76852 -23.2205
1371 1 3.44702 -0.133807 -22.0804
1372 2 2.83178 -0.642099 -22.842
1921 1 -1.869 -1.4893 -24.8467
1922 2 -1.97623 -0.559738 -24.1944
1693 2 4.15799 1.72201 -25.0713
2586 2 1.03131 2.57132 -21.5819
2583 1 -1.04065 2.56615 -22.1118
2584 2 -1.17124 1.49729 -21.8387
1363 1 4.5428 1.95316 -21.4465
1923 1 -0.668038 -1.68249 -25.5511
1369 1 4.08522 -0.824042 -21.0086
1370 2 3.96534 -1.86509 -20.6723
1684 3 3.96457 1.95207 -26.1306
1924 3 0.460463 -0.711925 -25.1617
1933 2 1.32207 -1.28637 -24.9089
1934 4 0.61411 0.252314 -26.0992
1931 1 12.6728 -2.41445 -24.9719
1932 2 11.7505 -2.33485 -24.4312
2582 2 12.563 2.68578 -23.1492
252 2 10.4348 1.60369 -25.4422
3230 4 7.08028 -1.24915 -25.3796
3231 2 6.69205 -0.300369 -25.3822
3220 3 7.51291 -1.80539 -24.2663
1230 4 10.646 2.06433 -21.1587
1231 2 10.4226 1.90969 -22.2675
2410 2 13.1104 -1.5598 -20.6995
2412 2 11.3122 -0.563265 -22.2317
2409 1 11.9967 -1.66558 -20.5727
2411 1 10.9506 -1.13859 -21.3925
3229 2 7.57182 -1.26879 -23.2722
2402 2 8.8622 -1.33346 -21.921
2401 1 9.60903 -1.4529 -21.1129
1232 2 11.6924 2.10871 -20.9479
1229 2 8.6852 2.15708 -20.4971
1364 3 4.9204 3.35929 -21.9417
1373 2 4.35217 3.51476 -22.8617
2578 2 -0.502177 6.22503 -23.138
2588 2 1.30738 4.97102 -22.1694
2577 1 -0.724489 5.16799 -22.9733
2587 1 0.286445 4.58527 -22.2211
2585 1 0.180261 3.1815 -21.9487
2579 1 -1.89295 4.52789 -23.4073
2581 1 -2.01316 3.21657 -22.9834
1028 3 0.0868924 8.07602 -24.9115
1026 2 -2.04672 7.95041 -23.1984
1726 4 5.29183 7.89477 -22.8881
1727 2 5.01318 8.60474 -23.5519
1039 2 2.12693 7.87767 -24.1957
1038 4 1.33009 8.50994 -24.7067
1807 2 0.432393 6.95249 -21.3546
1806 4 0.993211 7.6435 -20.6399
1805 2 2.82528 7.6026 -21.7852
1796 3 2.32966 7.95027 -20.8768
1681 1 1.89327 3.37649 -25.6059
1682 2 2.03381 3.14294 -24.5021
1691 1 0.750292 3.98125 -26.1369
1692 2 0.0319911 4.25851 -25.4363
1037 2 -0.131661 7.17817 -24.5514
1374 4 6.23812 3.51634 -22.0981
1376 2 6.89472 3.37985 -21.2972
1375 2 6.75256 3.54263 -23.0301
2590 4 12.6205 5.08184 -25.384
2580 3 12.5303 5.24242 -24.054
3035 1 9.78253 6.62233 -25.3305
3036 2 10.1694 6.58934 -24.3443
3034 2 11.4067 7.86263 -26.0656
2592 2 12.5011 4.08104 -25.7747
1728 2 5.68296 7.02427 -23.3994
1716 3 5.55797 7.98123 -21.5746
1723 1 8.7832 5.87149 -21.2713
1713 1 7.49427 6.24149 -21.6913
1715 1 6.9328 7.44324 -21.2113
1721 1 9.51744 6.75302 -20.5354
1714 2 6.96774 5.5733 -22.3374
1724 2 9.27674 4.99038 -21.7641
2589 2 12.4471 6.22759 -23.4815
3040 2 6.18414 5.40116 -25.2221
2591 2 12.677 5.85572 -26.1271
3025 1 8.68528 5.84511 -25.6338
3026 2 8.27467 5.17469 -24.8773
1725 2 5.42621 8.94384 -21.0613
1040 2 1.78726 9.44524 -25.134
1027 1 -1.13093 9.07612 -24.7694
1025 1 -2.18766 8.75777 -23.945
436 3 1.63997 14.3554 -23.8555
435 1 0.509517 13.4638 -23.3715
443 1 -0.0229241 11.5032 -21.9393
444 2 0.39948 10.6103 -21.4272
433 1 0.873921 12.2979 -22.7049
445 2 2.14261 14.2196 -24.8265
441 1 -1.35771 11.7449 -21.951
437 1 -0.885874 13.7533 -23.2825
439 1 -1.76731 12.8889 -22.5817
442 2 -2.0813 11.0513 -21.3481
434 2 1.91765 11.8914 -22.7588
2294 2 4.4291 11.6211 -20.7273
2296 2 2.15856 12.6336 -20.5457
1029 1 -1.35149 10.0733 -25.6925
1519 2 1.43568 12.1473 -25.2488
2311 1 5.15851 12.6162 -26.0472
1034 2 11.1717 11.2621 -24.6949
1033 1 12.0606 10.6682 -24.7767
1031 1 13.0554 10.825 -25.7863
1035 1 12.2196 9.62036 -23.8934
1036 2 11.4141 9.45358 -23.1938
2314 2 5.73614 13.2464 -24.0705
440 2 12.6373 12.8188 -22.473
2217 1 10.7896 13.8264 -24.6212
2218 2 11.43 12.9651 -24.3466
1572 3 7.38953 13.767 -21.6302
1581 2 7.89867 13.4076 -22.5282
1583 2 6.06356 12.1868 -21.2555
1582 4 6.41363 13.1845 -20.947
2219 1 10.0183 13.8712 -25.7967
2313 1 5.79719 12.4238 -24.8392
2305 1 6.34693 10.221 -25.5476
2306 2 6.8244 9.26415 -25.3109
2315 1 6.35941 11.2176 -24.5511
2316 2 6.88438 11.0697 -23.5349
438 2 -1.32196 14.6242 -23.8344
446 4 2.12173 15.1835 -22.9724
447 2 3.00638 15.8593 -23.0435
448 2 1.63 15.1566 -21.9733
2738 2 1.46382 18.9097 -24.252
2737 1 2.24046 19.7464 -24.2886
2747 1 3.28615 20.0413 -25.1552
2748 2 3.65358 19.1929 -25.718
2749 2 0.869 20.3259 -21.4856
770 2 1.2069 18.126 -20.5492
780 2 3.25664 16.7269 -20.841
1571 1 7.05168 15.229 -21.8594
1573 1 6.45277 15.5904 -23.1239
1574 2 6.48688 14.8273 -23.99
2216 2 11.2018 14.855 -22.8352
2215 1 10.6994 14.8983 -23.7314
2209 1 9.2246 15.0304 -26.0915
1576 2 5.93598 17.2382 -24.4729
1579 1 7.1863 17.5614 -21.2444
1569 1 7.18139 16.1963 -20.9221
1577 1 6.74955 17.9961 -22.4815
1578 2 6.73906 19.0422 -22.7331
1580 2 7.3569 18.3553 -20.482
1575 1 6.37829 16.9863 -23.4212
2662 2 11.6184 18.7465 -22.3396
2661 1 11.4943 19.1595 -21.3911
2223 2 9.15725 19.3668 -25.6922
2212 3 8.41104 17.3329 -25.5414
2214 2 9.86874 16.8309 -23.3856
2222 4 8.86593 18.502 -25.0547
2213 1 9.96252 16.0301 -24.0604
2211 1 9.1968 16.1597 -25.2407
2669 2 9.49513 16.6826 -20.5591
2672 2 12.5682 16.2027 -20.7835
2670 4 11.5601 16.0618 -20.5001
2660 3 10.553 16.8494 -20.7649
2659 1 10.9989 18.2659 -20.3904
2224 2 8.86356 18.7848 -24.0207
2740 3 0.629684 20.6567 -22.4832
2741 1 2.567 22.0574 -23.4649
2739 1 1.85413 20.8197 -23.4495
2742 2 2.12062 22.8352 -22.798
2751 2 -1.07777 21.7309 -21.9069
2752 2 -0.46797 22.1273 -23.6389
2750 4 -0.377189 21.4976 -22.6605
2538 2 -2.29382 22.0313 -25.8205
3329 1 3.01538 25.597 -21.806
3330 2 3.79246 25.4002 -21.0476
3344 2 5.18798 24.8007 -22.4437
3340 2 1.4646 24.5332 -20.6172
3337 1 0.714686 25.7589 -22.4333
3339 1 1.68223 25.1939 -21.5686
3338 2 -0.332597 25.4565 -22.4406
2745 1 4.12495 21.1663 -24.8995
2746 2 5.04286 21.3363 -25.4288
2743 1 3.71066 22.3058 -24.133
2744 2 4.24165 23.2481 -24.2219
2540 2 -2.23513 24.7365 -25.5633
2042 2 11.0559 26.0056 -22.1349
2664 2 12.1905 21.1932 -21.7723
2663 1 11.6539 20.5283 -21.038
2028 2 10.0891 23.8554 -21.3752
2024 2 7.96787 20.5832 -23.0161
2017 1 8.06986 23.6252 -20.7065
2019 1 7.032 22.673 -20.6288
2021 1 7.02596 21.5679 -21.431
2023 1 8.06292 21.3702 -22.3174
2025 1 9.24127 22.1209 -22.1653
2026 2 10.0271 21.923 -22.835
2027 1 9.15215 23.2646 -21.4303
2022 2 6.12588 20.8516 -21.4482
3343 2 6.19037 25.3706 -23.9669
3342 4 5.524 25.6721 -23.1462
2537 1 12.2879 22.7383 -25.6311
2536 2 10.8617 21.1035 -26.1231
2539 1 12.3194 24.1847 -25.5617
2535 1 11.0262 22.1331 -25.7747
2530 2 11.144 26.0005 -24.9854
2542 4 8.83212 25.9106 -23.777
2532 3 8.68718 24.7034 -24.3853
2534 2 8.9438 22.43 -25.6273
2531 1 9.95135 24.1657 -24.9746
2529 1 11.1449 24.8612 -25.1606
2533 1 9.89722 22.8627 -25.4583
2541 2 7.84495 23.9653 -24.2059
1300 3 3.86704 -23.0607 -19.0144
1309 2 3.70771 -22.1622 -18.4754
1310 4 2.83367 -23.9029 -19.1487
1311 2 1.79904 -23.9028 -18.7601
1312 2 3.00255 -24.8145 -19.8208
1299 1 5.02873 -23.594 -18.2228
1302 2 5.19024 -21.824 -16.8355
2038 2 -2.01798 -23.5744 -19.9303
3048 2 -0.703028 -24.2014 -17.1813
3045 1 -2.07946 -25.7005 -18.0099
3047 1 -1.77179 -24.5741 -17.2369
3046 2 -1.2755 -26.152 -18.5928
1166 4 -0.577435 -21.5599 -17.2403
1167 2 -0.330337 -21.3672 -18.3531
1168 2 -1.62374 -21.4725 -16.8875
1156 3 0.451863 -21.5428 -16.4066
1165 2 1.37565 -21.3417 -16.8757
1163 1 1.08193 -25.012 -14.7598
1155 1 0.264391 -22.7634 -15.4566
1153 1 1.18864 -23.8468 -15.5998
1154 2 2.08205 -23.6621 -16.2666
1164 2 1.98102 -25.6267 -14.709
1301 1 5.62799 -22.7975 -17.2455
1298 2 5.51254 -25.2295 -19.6585
1297 1 5.82105 -24.6746 -18.7935
2048 2 9.62084 -22.2559 -17.9208
2047 2 10.8185 -21.3287 -16.8796
2046 4 10.6627 -21.817 -17.8359
2036 3 11.6962 -22.1752 -18.6006
2045 2 12.6844 -21.7532 -18.5147
2033 1 10.1642 -23.5304 -20.2764
2035 1 11.4046 -23.1274 -19.7457
2037 1 12.5237 -23.8328 -20.2876
2034 2 9.17273 -23.1817 -20.0278
1304 2 7.36626 -22.3847 -15.9652
1303 1 6.89829 -22.9868 -16.733
1307 1 7.16014 -24.7931 -18.3841
1305 1 7.64752 -24.0041 -17.3365
3050 2 13.1485 -22.9584 -16.0334
1306 2 8.68047 -24.1578 -16.9087
3049 1 12.7596 -23.9147 -16.5223
3052 2 10.5984 -24.0887 -15.9973
1308 2 7.73485 -25.6794 -18.8186
3042 2 10.141 -25.9033 -17.3268
3041 1 11.1708 -25.5254 -17.3252
3051 1 11.4909 -24.46 -16.4827
3070 4 2.51122 -19.1568 -14.7626
3063 1 4.69538 -15.9152 -17.3932
3064 2 5.3849 -15.0552 -17.1777
3059 1 2.97548 -17.543 -16.7286
3057 1 2.66782 -17.727 -18.0562
3065 1 4.30427 -16.0561 -18.7747
3067 1 3.33971 -17.0151 -19.0495
3068 2 3.08519 -17.2971 -20.1329
3061 1 4.01009 -16.6825 -16.4178
3062 2 4.41207 -16.6281 -15.4135
3060 3 2.0271 -18.212 -15.6094
3066 2 4.85328 -15.6491 -19.6635
3058 2 1.80951 -18.3465 -18.4081
3075 1 -0.184625 -16.5581 -18.1401
3073 1 0.11504 -17.0326 -19.4505
3083 1 -0.414204 -18.2835 -19.8393
3074 2 0.98662 -16.4437 -19.922
3077 1 -1.03105 -17.3618 -17.256
3080 2 -1.94774 -19.1487 -16.9812
3079 1 -1.47276 -18.5897 -17.6959
3081 1 -1.26623 -19.0292 -18.9771
3082 2 -1.55811 -19.9583 -19.5071
3087 2 1.96104 -14.6837 -18.3284
3076 3 0.225989 -15.2094 -17.4892
3085 2 0.860111 -15.4557 -16.5361
3086 4 0.913009 -14.5393 -18.3885
3069 2 1.04282 -18.4296 -16.0954
3078 2 -1.20319 -17.052 -16.1733
2321 1 -2.17206 -15.2066 -14.9455
1489 1 9.18991 -16.4335 -20.2331
2256 2 8.76927 -19.2526 -20.1301
1497 1 11.4661 -17.1805 -20.2621
1495 1 11.1846 -18.105 -19.2345
1496 2 11.8843 -18.9242 -18.9675
1492 3 7.8123 -16.5815 -18.2056
1491 1 9.0561 -17.0252 -19.006
1502 4 7.61813 -15.2797 -18.3757
1501 2 6.95729 -17.1805 -18.5961
1493 1 10.0018 -17.9265 -18.5315
1494 2 9.79579 -18.3153 -17.5535
1503 2 6.86377 -14.7892 -19.0208
514 2 8.06358 -20.3109 -14.863
528 2 9.96973 -20.1067 -15.2833
2331 1 12.146 -15.3444 -15.6594
2332 2 11.7376 -14.6327 -16.3471
2329 1 11.4558 -16.5246 -15.4261
2330 2 10.5088 -16.7044 -16.0235
3261 2 4.86311 -11.6885 -20.3458
3088 2 0.528923 -14.1461 -19.3288
3262 4 3.58484 -12.2422 -18.8404
3253 1 5.1704 -10.5202 -17.4408
3252 3 4.80143 -12.1409 -19.3623
3254 2 4.1933 -10.0893 -17.685
810 2 1.48036 -11.0378 -16.6464
2322 2 -1.51279 -14.3729 -15.1368
3264 2 3.35923 -12.6876 -17.7871
3263 2 2.72951 -12.0433 -19.4354
807 1 1.30482 -9.45963 -15.1909
1902 4 -2.31533 -9.20505 -15.6725
1892 3 -2.21078 -10.5211 -15.6389
809 1 1.42178 -10.8079 -15.5422
812 2 1.31554 -12.9722 -14.819
811 1 1.23669 -11.8339 -14.6097
1901 2 -2.19575 -11.2923 -16.4382
2824 2 11.3846 -14.3327 -19.8567
2823 1 11.1152 -13.3007 -19.6689
2827 1 10.9749 -11.3472 -18.1936
2817 1 10.2702 -10.735 -19.2151
2826 2 12.1112 -13.2144 -17.8028
2825 1 11.3675 -12.6779 -18.439
2832 2 7.38735 -10.8522 -20.1073
1504 2 8.33241 -14.5218 -17.8471
2818 2 9.8699 -9.7409 -19.083
3250 2 7.15168 -13.0392 -18.5336
2828 2 11.1144 -10.8455 -17.2268
3256 2 5.45894 -9.35605 -15.7191
3258 2 7.76861 -10.3996 -15.0599
3255 1 5.85107 -10.2233 -16.284
3259 1 7.55118 -11.7826 -16.8699
3260 2 8.45822 -12.3395 -16.6958
3257 1 7.16378 -10.7196 -16.022
3249 1 6.78005 -12.2331 -17.9163
3251 1 5.66066 -11.5245 -18.2921
1136 2 6.74048 -13.0482 -15.2352
1894 2 10.5692 -9.81419 -14.9184
1903 2 12.7646 -8.78512 -16.5889
1891 1 12.3433 -11.1487 -14.5918
1053 2 -0.282748 -6.39311 -19.2696
1044 3 -1.06067 -6.08832 -20.0198
3388 2 3.13805 -7.46979 -19.6381
3385 1 5.1947 -7.73351 -20.2411
3387 1 4.20571 -7.19356 -19.4591
3377 1 4.46444 -6.39124 -18.3512
3378 2 3.64954 -5.91118 -17.842
3390 4 5.07914 -5.43067 -15.7998
3392 2 5.40206 -6.3722 -15.356
1952 2 0.380961 -2.91582 -17.6513
808 2 1.41628 -8.62771 -15.9483
3391 2 4.41223 -4.82978 -15.2062
1043 1 13.0898 -6.62722 -20.0145
1045 1 11.9922 -5.97814 -19.5662
1046 2 12.0793 -4.87726 -19.3837
1047 1 10.7008 -6.47062 -19.8593
1048 2 9.77039 -5.90973 -19.6389
3381 1 6.70924 -6.73517 -18.622
3383 1 6.50744 -7.60884 -19.7699
3379 1 5.73367 -6.01199 -17.9876
3380 3 5.80692 -4.97625 -16.787
3384 2 7.4975 -7.97639 -20.2269
2414 4 6.79199 -3.03918 -20.1596
2416 2 6.91345 -4.07281 -19.9449
1904 2 13.1071 -8.51379 -14.7518
3389 2 5.73037 -3.9658 -17.1001
3382 2 7.73509 -6.69137 -18.222
397 2 8.77677 -4.7729 -14.6798
399 2 9.2881 -3.09829 -16.1873
3196 2 10.9264 -6.14053 -15.0388
3193 1 8.90019 -7.09721 -15.1685
3195 1 10.1375 -6.71001 -14.5551
3192 2 6.84542 -7.89554 -14.7609
3194 2 8.72185 -6.72969 -16.2173
1367 1 4.78286 -0.0422585 -20.1207
1365 1 5.10028 1.31262 -20.3222
1368 2 5.0667 -0.483597 -19.0473
1554 2 -0.762749 2.53241 -14.8979
1449 1 4.90217 0.919998 -16.4655
1450 2 4.15623 0.0820067 -16.4044
1567 2 1.68544 2.4785 -17.7656
1565 2 -0.57572 1.56127 -17.7366
1556 3 -0.348708 2.57981 -17.3802
1451 1 4.55172 2.00129 -17.2659
1452 2 3.73072 1.94672 -18.0164
1950 4 0.996463 -2.01968 -17.4636
1951 2 2.02709 -2.1519 -17.6946
1938 2 -2.14679 -0.444317 -17.7025
1937 1 -1.93907 -0.791156 -16.7028
1940 3 0.585112 -0.761465 -17.2947
1949 2 1.21559 0.0848841 -17.1927
1939 1 -0.607727 -0.828264 -16.3526
1942 2 0.851196 -1.1123 -14.8025
1941 1 -0.229779 -1.08502 -15.0546
1850 2 2.53208 1.85454 -15.456
2408 2 12.0999 -2.36575 -18.443
2405 1 10.1456 -2.45634 -19.0951
2407 1 11.4765 -2.04385 -19.2408
1366 2 5.69423 1.91074 -19.5952
2406 2 9.77685 -2.76726 -18.0541
2403 1 9.1466 -2.04119 -19.9353
2404 3 7.55893 -2.04317 -19.6155
2413 2 7.2446 -1.04453 -19.9364
1224 2 11.625 2.55869 -15.928
1225 1 10.3335 0.737352 -16.3048
1221 1 10.9348 2.44703 -17.9283
1223 1 10.9849 1.98665 -16.6407
1447 1 5.97941 1.08862 -15.6418
1448 2 6.1047 0.183498 -15.0301
1220 3 9.71649 2.3039 -20.1824
1218 2 8.8833 0.191075 -19.3164
1217 1 9.5578 0.581077 -18.5845
1227 1 9.73933 -0.0174564 -17.356
1228 2 9.09429 -0.893218 -17.0225
1219 1 10.1061 1.79091 -18.8623
398 4 8.76055 -2.80168 -15.3086
400 2 8.28757 -1.82079 -15.3566
1947 1 12.6054 -1.07394 -15.7698
1948 2 11.5755 -1.24207 -16.055
1226 2 10.4054 0.385511 -15.2444
1446 2 7.54452 2.22181 -14.8492
1445 1 6.85939 2.11611 -15.6429
1553 1 -1.38539 3.29399 -15.2784
1555 1 -1.28694 3.45512 -16.671
1557 1 -2.10541 4.49781 -17.173
1566 4 0.910693 3.04745 -17.2979
1568 2 1.21535 4.02339 -16.9845
1558 2 -1.9383 4.88982 -18.171
1800 2 3.53638 4.6889 -17.7109
1799 1 3.77776 5.69701 -18.1222
1798 2 2.67201 5.30051 -19.9429
1795 1 3.13785 7.41799 -19.7225
1797 1 3.2142 6.1027 -19.3642
1808 2 0.388438 8.14371 -19.9346
1801 1 4.26476 6.71982 -17.2878
1803 1 4.39524 8.05183 -17.6815
1804 2 4.94338 8.69495 -16.9813
1793 1 3.80385 8.34091 -18.8787
1802 2 4.61921 6.47062 -16.1924
1852 2 3.81508 3.91699 -15.3456
1346 2 0.617764 8.62339 -15.6968
1087 2 2.89871 8.26361 -14.9489
1348 3 -2.25571 8.08553 -15.6261
1357 2 -1.69846 7.45085 -14.9571
1560 2 11.7677 5.79254 -16.8099
1717 1 7.68861 8.22848 -20.2976
1719 1 8.97662 7.84571 -19.9386
1720 2 9.5176 8.49726 -19.2124
1722 2 10.5041 6.37831 -20.1628
1222 2 11.3536 3.37685 -18.2126
1559 1 12.5175 5.17645 -16.4148
1441 1 5.5992 2.94672 -17.5441
1442 2 5.69517 3.5577 -18.466
1443 1 6.73797 3.07339 -16.6876
1561 1 12.4549 5.01603 -15.0777
1444 3 7.81696 4.20591 -16.8897
1453 2 8.6938 3.62145 -16.948
1455 2 8.30128 4.747 -18.8501
1456 2 6.93465 5.69318 -18.1877
1454 4 7.62206 4.90447 -18.0392
1020 2 7.69523 6.83906 -15.8848
1019 1 8.16647 7.51974 -15.1202
1353 1 0.0242782 10.8288 -18.2717
1354 2 0.542904 11.4559 -19.0559
1351 1 -1.32648 10.5168 -18.4265
1352 2 -1.95925 11.156 -18.9871
1349 1 -2.06052 9.80704 -17.4941
1794 2 3.75056 9.39143 -19.2215
2293 1 4.08403 11.8475 -19.7116
2289 1 4.66325 12.2365 -17.4179
2291 1 5.03521 11.7769 -18.7161
2297 1 2.47647 12.9175 -18.3562
2299 1 3.334 12.7228 -17.2755
656 2 0.16674 14.1743 -19.7055
2295 1 2.86685 12.5232 -19.6531
2290 2 5.38086 12.1727 -16.5654
1345 1 0.0594232 9.15388 -16.4619
1355 1 0.704605 10.0198 -17.3416
1356 2 1.72892 10.2333 -17.1184
1088 2 4.03523 9.57649 -14.6831
1347 1 -1.43118 8.94918 -16.5562
2298 2 1.50549 13.3082 -18.0455
2300 2 3.03966 12.9338 -16.2573
651 1 -0.982724 14.4088 -15.1714
649 1 -2.05648 13.4894 -15.1317
1718 2 7.1114 8.9677 -19.7384
1584 2 5.84138 13.5301 -20.1084
1350 2 12.4584 9.78029 -17.6935
2292 3 6.4863 11.2782 -19.0051
2301 2 6.31298 10.2142 -18.7676
2304 2 8.00496 12.753 -18.3621
2302 4 7.3179 11.9171 -18.1657
2303 2 7.47633 11.5905 -17.1153
1022 4 9.67685 11.6376 -15.0711
1024 2 10.6904 11.1191 -15.2328
1010 2 7.65078 9.43255 -15.9813
1009 1 8.25452 8.91769 -15.1647
1358 4 12.1625 8.93715 -15.2486
1360 2 11.6082 9.71963 -15.7904
1023 2 9.41783 12.5089 -15.7243
647 1 12.7665 13.1874 -16.2788
648 2 12.0319 12.3775 -16.3299
646 2 12.3904 13.7501 -18.3771
645 1 12.942 13.9988 -17.4194
2445 2 6.41212 13.8394 -15.9364
776 2 3.68952 16.4606 -16.5979
655 2 0.765662 15.76 -19.7475
771 1 1.67642 18.4362 -18.406
773 1 2.24316 17.8318 -17.323
774 2 1.88653 18.1262 -16.376
769 1 1.89459 18.0224 -19.7036
772 3 0.509783 19.3279 -18.1718
781 2 0.0804529 19.0742 -17.2283
778 2 4.46413 15.9622 -18.9012
777 1 3.62227 16.6729 -18.7594
779 1 2.9268 17.138 -19.8791
775 1 3.2591 16.904 -17.4715
2266 2 5.13594 18.9359 -19.2787
2267 1 4.75769 20.2117 -17.6117
2265 1 5.39974 19.1963 -18.2657
642 2 0.060407 15.7502 -16.5494
643 1 -1.46918 14.8378 -17.5209
654 4 -0.00645357 15.1365 -19.3985
644 3 -1.19156 15.5094 -18.8366
653 2 -1.44637 16.5998 -18.7156
641 1 -0.713861 15.0327 -16.3726
319 2 3.49207 18.2434 -14.8778
2632 2 -2.05663 19.6936 -15.1353
2447 2 4.63681 14.6294 -14.659
1570 2 7.24379 15.9699 -19.8389
2671 2 11.2954 15.146 -20.0105
2440 2 10.5774 16.0854 -17.3085
2441 1 10.2948 16.9181 -15.3192
2439 1 9.95005 16.0708 -16.3988
2442 2 11.2902 17.437 -15.3317
2259 1 6.02366 19.6704 -15.6419
2667 1 10.5033 20.1664 -18.9351
2657 1 10.6376 18.7827 -19.1484
2658 2 10.1156 18.0316 -18.5385
2263 1 6.44007 18.4309 -17.6329
2264 2 6.83282 17.5685 -18.2276
2261 1 6.68746 18.7102 -16.3419
2262 2 7.40535 18.0626 -15.8045
2435 1 7.82715 15.5407 -15.3884
2437 1 8.67411 15.4653 -16.4692
2438 2 8.38615 14.8444 -17.3924
2436 3 6.64743 14.5864 -15.1865
782 4 0.85754 20.5833 -18.2988
783 2 1.03427 21.1657 -17.3788
784 2 1.24904 21.0479 -19.143
2257 1 5.0707 20.4935 -16.2811
2258 2 4.55925 21.3132 -15.731
2268 2 3.91138 20.594 -18.0298
618 2 -1.13121 23.5862 -16.2917
609 1 2.24829 23.9726 -16.7063
620 2 0.34982 24.1141 -17.8924
610 2 2.97584 24.3323 -17.4622
617 1 -0.0979141 23.5291 -15.9911
619 1 0.825528 23.9363 -16.9212
611 1 2.59194 23.8656 -15.3076
612 3 4.04574 24.1524 -14.8429
2029 2 4.9208 23.4185 -20.2039
621 2 4.43073 25.0888 -14.9907
615 1 0.276358 23.292 -14.6696
2665 1 11.1676 21.0051 -19.8272
2666 2 11.2827 22.0817 -19.4698
2668 2 10.066 20.6806 -18.0225
2018 2 7.99555 24.4312 -20.0244
2031 2 6.34766 23.999 -18.0372
2030 4 6.43705 23.041 -18.5526
2032 2 7.07022 22.2282 -18.0933
2020 3 5.75663 22.7446 -19.7597
3055 2 10.8856 23.3197 -18.011
3044 3 11.9082 24.9351 -18.9692
3053 2 11.1101 25.2465 -19.6811
3054 4 11.8097 23.9165 -18.1698
3043 1 12.1906 26.1566 -18.1194
3056 2 12.6661 23.6032 -17.5735
953 1 8.94623 22.544 -15.1628
954 2 8.30123 21.745 -15.6339
950 2 9.15093 25.9123 -14.7368
952 2 7.68892 24.2358 -15.8582
949 1 9.3996 24.8766 -14.7788
951 1 8.59494 23.9015 -15.3558
1158 2 -1.1721 -21.8525 -14.2641
1159 1 -0.87526 -24.0194 -13.7478
1161 1 -0.013096 -25.0868 -13.8911
1157 1 -0.702471 -22.8158 -14.4439
522 2 5.35668 -22.1701 -12.1049
3019 1 2.68633 -21.7887 -11.0266
3020 2 3.43553 -22.5795 -10.9806
3010 2 0.850795 -23.013 -11.212
3017 1 3.09581 -20.442 -10.9332
3360 2 4.75412 -26.0071 -12.2509
1160 2 -1.67872 -23.992 -13.0602
911 2 2.02189 -25.0872 -11.0737
910 4 1.09229 -25.281 -10.8215
899 1 -0.81614 -24.9821 -9.25374
909 2 0.980847 -24.0742 -9.0176
900 3 0.608909 -24.8627 -9.6479
3022 4 -1.74653 -21.1538 -10.0438
3009 1 1.328 -22.0189 -11.1182
3011 1 0.365507 -20.9899 -11.1007
3012 3 -1.1415 -21.1879 -11.1958
3021 2 -1.28899 -21.9305 -11.9933
1162 2 -0.0374615 -26.0019 -13.3141
897 1 -1.61429 -25.9677 -9.85771
3350 2 4.46606 -24.3799 -10.4434
3349 1 5.19804 -24.8252 -9.6791
2906 2 5.35129 -21.511 -9.06757
523 1 6.64971 -21.3884 -13.6411
521 1 6.3988 -21.8268 -12.3219
524 2 5.72593 -21.4318 -14.2443
513 1 7.86872 -20.8856 -13.9234
515 1 8.79716 -20.7506 -12.9149
517 1 8.55206 -21.2022 -11.6141
526 4 10.4554 -20.4168 -14.3466
527 2 11.509 -20.6286 -14.4996
3345 1 7.428 -25.656 -9.0736
3346 2 8.4298 -25.9043 -9.42834
519 1 7.35156 -21.7326 -11.2326
518 2 9.2399 -20.9978 -10.8529
520 2 7.20209 -22.0243 -10.2756
959 2 11.2678 -25.0177 -12.079
957 2 11.7806 -25.9648 -14.1064
958 4 10.9339 -26.0133 -12.2474
3348 3 6.77415 -25.5227 -11.5886
3347 1 6.5296 -25.3084 -10.0936
3023 2 13.088 -21.8793 -9.76405
3357 2 7.85695 -25.738 -11.6851
907 1 12.5796 -26.0036 -9.42101
3072 2 3.46841 -18.9478 -14.242
3071 2 1.80515 -19.886 -14.3983
1125 1 5.28303 -16.4075 -12.9364
3018 2 4.18624 -20.2367 -10.9345
2334 4 0.624729 -15.8196 -13.5551
2335 2 1.39241 -15.3806 -12.9309
2336 2 1.09091 -16.4077 -14.3592
1126 2 4.22364 -16.18 -12.9068
2324 3 -0.585577 -16.048 -13.027
2333 2 -0.818091 -15.5504 -12.0968
2323 1 -1.76711 -16.1521 -13.9771
3024 2 -1.51256 -20.3465 -9.38512
1128 2 4.99565 -18.3631 -12.0144
3015 1 2.18173 -19.429 -11.1771
3016 2 2.51531 -18.4316 -11.3243
3013 1 0.854753 -19.6803 -11.15
3014 2 0.15553 -18.8248 -11.2764
2326 2 -2.20192 -17.9531 -12.9827
3278 4 -1.39956 -16.5699 -9.90892
3279 2 -0.322976 -16.6693 -9.95436
3268 3 -2.26269 -17.4131 -10.4555
3277 2 -1.99648 -18.3054 -10.9776
3280 2 -1.75011 -15.9961 -9.08435
525 2 10.7486 -20.0485 -12.2248
516 3 10.0559 -20.0465 -13.0835
1127 1 5.65431 -17.6338 -12.5048
1123 1 6.19337 -15.3329 -13.4318
1130 2 7.24288 -19.0689 -12.5252
1121 1 7.5919 -15.6746 -13.3711
1131 1 7.89138 -17.0149 -13.1086
1132 2 8.95211 -17.2582 -13.1219
1129 1 6.96888 -18.0075 -12.7563
1122 2 8.34466 -14.935 -13.6207
2327 1 11.7712 -17.456 -14.4243
2325 1 12.9702 -17.2601 -13.7674
2328 2 11.1141 -18.302 -14.3302
3267 1 11.8196 -17.0364 -10.415
3270 2 11.1239 -18.4489 -8.92772
3269 1 10.8261 -17.6234 -9.5741
3273 1 9.23588 -15.9489 -10.2499
3271 1 9.55045 -17.1592 -9.5841
3272 2 8.73555 -17.6737 -9.06518
3274 2 8.26465 -15.6447 -10.4512
3266 2 12.3112 -15.634 -11.8231
3276 2 9.98814 -14.6562 -11.88
3265 1 11.4125 -15.9838 -11.1782
3275 1 10.1477 -15.4632 -11.1697
566 2 4.55694 -14.2593 -10.4925
568 2 5.32459 -12.2929 -11.8084
565 1 5.3799 -13.6366 -10.0882
1124 3 5.41097 -14.1154 -13.8265
1133 2 4.65072 -13.9388 -12.9934
805 1 1.20967 -9.1837 -13.8281
802 2 1.25716 -12.2612 -12.5728
801 1 1.2816 -11.4193 -13.2548
803 1 1.23998 -10.1362 -12.8199
804 3 1.46952 -9.88389 -11.3135
813 2 1.09126 -10.7338 -10.6567
1890 2 -1.95115 -12.8365 -13.9565
814 4 2.78402 -9.67751 -11.0646
816 2 3.29883 -8.77048 -11.2554
815 2 3.37807 -10.2478 -10.3048
2479 2 -1.50833 -9.61784 -12.0021
2478 4 -2.18688 -9.93741 -11.2217
2468 3 -1.6421 -10.9074 -10.4552
2477 2 -0.602099 -11.3672 -10.4156
2466 2 -2.20121 -13.3535 -10.444
410 2 -0.49623 -13.2296 -9.30573
412 2 1.59201 -12.0501 -9.28438
569 1 7.12523 -11.8869 -10.4829
567 1 5.88795 -12.5845 -10.8441
1135 2 6.02043 -12.1491 -13.7417
1134 4 6.07578 -13.0572 -14.3178
1896 2 9.17418 -10.6369 -13.6737
1895 1 10.1105 -11.0924 -13.6302
1898 2 9.57969 -12.6673 -12.2602
570 2 7.70742 -11.1903 -11.1668
1899 1 11.6329 -12.8761 -13.0513
1900 2 11.9999 -13.5934 -12.3123
1889 1 12.5917 -12.3426 -13.8928
1893 1 11.0739 -10.6125 -14.4114
1897 1 10.3354 -12.2463 -12.8847
571 1 7.80184 -12.4932 -9.44847
563 1 5.94724 -14.0446 -8.92951
572 2 8.76512 -12.1508 -9.2001
2480 2 12.5015 -9.40627 -10.8238
2467 1 12.9675 -11.4471 -9.43368
2465 1 12.6793 -12.7965 -9.71188
2475 1 11.7271 -13.4303 -9.0349
2476 2 11.6416 -14.5115 -9.1808
3198 4 9.33454 -9.15488 -10.3223
3199 2 9.62858 -9.04289 -9.2875
3200 2 9.1755 -10.1795 -10.8494
806 2 1.12706 -8.15759 -13.5182
2893 2 1.66051 -6.8121 -12.2558
2894 4 0.296385 -5.16009 -12.8369
2895 2 0.833416 -4.70244 -13.5826
2883 1 -0.248092 -6.58551 -10.9302
2884 3 0.693653 -6.22931 -12.0611
2881 1 -1.59715 -6.31485 -10.9829
2882 2 -2.14199 -6.22554 -12.0312
2896 2 -0.698922 -4.64098 -12.7848
2886 2 1.24486 -7.23511 -9.37144
2885 1 0.232231 -6.86596 -9.63932
2889 1 -2.12424 -6.97017 -8.73618
944 2 2.82451 -5.2314 -9.2754
931 1 1.34413 -2.91312 -9.30903
934 2 -0.517548 -3.71249 -10.0542
385 1 9.11865 -4.21659 -12.1391
386 2 9.34866 -5.19266 -12.6536
388 3 8.39849 -3.76515 -14.4851
3185 1 10.3979 -7.27569 -13.3343
3186 2 11.3555 -7.01153 -12.8264
2891 1 13.007 -6.53079 -9.97779
2892 2 12.0085 -6.52701 -10.3887
387 1 8.63317 -3.26555 -13.0576
395 1 9.36521 -3.99531 -10.8316
396 2 9.84133 -4.70975 -10.1196
3190 2 7.39977 -8.65271 -12.483
3191 1 7.87057 -7.74395 -14.4302
3189 1 8.17199 -8.171 -13.1151
3188 3 9.7692 -8.13683 -11.0897
3197 2 9.84426 -7.10407 -10.6816
3187 1 9.41954 -7.94378 -12.5537
430 4 6.89666 -5.85791 -9.57102
431 2 7.09073 -4.79556 -9.81333
432 2 6.58991 -6.56889 -10.3841
482 2 11.1554 -2.98861 -8.94969
1943 1 -1.19987 -1.2355 -14.1148
1944 2 -0.871966 -1.22888 -13.0891
1849 1 2.8189 2.19021 -14.4566
2111 2 -1.19052 2.78698 -11.5573
929 1 2.30408 -1.89283 -9.41863
938 2 0.841113 -0.0350798 -11.7652
940 2 2.79523 -0.0669785 -10.6179
939 1 2.14231 -0.929233 -10.3729
937 1 0.971306 -0.906334 -11.1529
933 1 0.234263 -2.89495 -10.0546
935 1 0.0267886 -1.96131 -11.0444
936 2 -1.01971 -1.99194 -11.5369