LAMMPS output created by EMC v9.4.4, build Jul 31 2025 20:33:47

        5593  atoms
        5573  bonds
        7106  angles
        7073  dihedrals

           3  atom types
           4  bond types
           8  angle types
          10  dihedral types

             0    155.0014843  xlo xhi
             0    155.0014843  ylo yhi
             0    155.0014843  zlo zhi

Masses

       1   13.01890  # c4h
       2   14.02680  # c4h2
       3   15.03470  # c4h3

Atoms

       1       1   2  0.0000  19.8688474793  98.3355143800  91.6765961013  # c4h2
       2       1   1  0.0000  19.3316556781  99.5764101662  92.3119158841  # c4h
       3       1   3  0.0000  17.8293464738  99.3522237777  92.7044973005  # c4h3
       4       1   2  0.0000  19.6877016951  96.5167950255  89.7658431655  # c4h2
       5       1   2  0.0000  19.0458142915  97.7965031569  90.4817759796  # c4h2
       6       1   2  0.0000  19.4330633104  93.9565218882  89.3222167100  # c4h2
       7       1   1  0.0000  19.3723113443  95.1468931097  90.3890928269  # c4h
       8       1   3  0.0000  20.1811175323  94.9964081612  91.6896497810  # c4h3
       9       1   2  0.0000  19.5078089875 100.9008052844  91.4588490250  # c4h2
      10       1   1  0.0000  20.4965793802 101.9293242645  92.0580808222  # c4h
      11       1   3  0.0000  21.8497776218 101.2875423351  92.1178114204  # c4h3
      12       1   2  0.0000  20.3940283846 103.2443373559  91.2682293133  # c4h2
      13       1   1  0.0000  19.0365019478 103.9634636078  91.6041788045  # c4h
      14       1   3  0.0000  19.0380883528 104.0019032786  93.1030418282  # c4h3
      15       1   2  0.0000  19.6027088395  91.3744694202  89.1392403788  # c4h2
      16       1   1  0.0000  19.2561485710  92.5484327839  90.0749429250  # c4h
      17       1   3  0.0000  17.8725203467  92.3979723428  90.7235529972  # c4h3
      18       1   2  0.0000  18.7607329227 105.4619379520  91.1974103831  # c4h2
      19       1   1  0.0000  17.2073672185 105.8041774194  91.2352046765  # c4h
      20       1   3  0.0000  16.3681083490 105.3975723559  92.4378656460  # c4h3
      21       1   2  0.0000  18.8158916376  88.8259348057  89.0315510548  # c4h2
      22       1   2  0.0000  19.2372277554  89.9907590314  89.8172382259  # c4h2
      23       1   2  0.0000  16.7342689530  90.1681390614  88.0369482860  # c4h2
      24       1   2  0.0000  17.3066042248  88.9743135840  88.8458392196  # c4h2
      25       1   2  0.0000  14.9485967149  91.6834250646  87.2353007916  # c4h2
      26       1   1  0.0000  15.2490649447  90.2533174653  87.8319449380  # c4h
      27       1   3  0.0000  14.9647626580  89.0574542724  86.9178512084  # c4h3
      28       1   2  0.0000  16.5482869917 105.8115873849  89.8465754684  # c4h2
      29       1   1  0.0000  15.2612547729 106.5489701742  89.6495053282  # c4h
      30       1   3  0.0000  15.4236290128 107.9441458128  90.0962940891  # c4h3
      31       1   2  0.0000  14.8559416634 106.3345078020  88.1853790677  # c4h2
      32       1   2  0.0000  13.5296269485 106.8405340523  87.5751145402  # c4h2
      33       1   2  0.0000  13.7592133595 108.1361027519  86.8001164896  # c4h2
      34       1   1  0.0000  12.4491632160 108.6559043180  86.3648758783  # c4h
      35       1   3  0.0000  11.5943874962 108.9302370435  87.5523889864  # c4h3
      36       1   2  0.0000  12.5864232270 109.9819327417  85.5137610368  # c4h2
      37       1   2  0.0000  11.2978159689 110.8007268544  85.1975199422  # c4h2
      38       1   2  0.0000  10.3775776433 110.1432966353  84.1788038511  # c4h2
      39       1   1  0.0000   9.1901424728 111.0151687712  83.7140857700  # c4h
      40       1   3  0.0000   9.4868038662 112.5194602899  83.7015887179  # c4h3
      41       1   2  0.0000  12.8312385081  91.1875804694  85.7409274073  # c4h2
      42       1   2  0.0000  13.5179730279  91.9274450222  86.9712769636  # c4h2
      43       1   2  0.0000  10.3551041164  92.0156054132  85.7420262336  # c4h2
      44       1   2  0.0000  11.3160377156  90.8427891582  85.7463364422  # c4h2
      45       1   2  0.0000   8.9953222681  93.7973438478  84.7110313961  # c4h2
      46       1   2  0.0000  10.2338610316  92.9065534569  84.5573077169  # c4h2
      47       1   2  0.0000   8.5545663777  94.2279796288  82.2978934378  # c4h2
      48       1   1  0.0000   8.8068211959  94.8422492965  83.6425551260  # c4h
      49       1   3  0.0000  10.1297409363  95.7120878443  83.7034820845  # c4h3
      50       1   2  0.0000   7.8809500147 110.7440125551  84.4104758009  # c4h2
      51       1   1  0.0000   7.7432084716 110.7278496285  85.9109634341  # c4h
      52       1   3  0.0000   7.0860476380 109.4329434922  86.3785885795  # c4h3
      53       1   2  0.0000   8.1129571993  96.4508319591  80.9849698261  # c4h2
      54       1   1  0.0000   7.6197710029  95.0645846929  81.3654700582  # c4h
      55       1   3  0.0000   7.1000346242  94.3419210924  80.1820909006  # c4h3
      56       1   2  0.0000   7.9991948497  98.7104481525  79.9594571213  # c4h2
      57       1   2  0.0000   7.1689856930  97.4652446861  80.2606038741  # c4h2
      58       1   2  0.0000   6.2253722927 100.4670978592  79.0550589482  # c4h2
      59       1   2  0.0000   7.5401891541  99.6224401164  78.8578352364  # c4h2
      60       1   2  0.0000   7.0238440593 111.9418227442  86.5656615268  # c4h2
      61       1   2  0.0000   5.5885393416 111.8399248714  86.2085398700  # c4h2
      62       1   2  0.0000   4.6340136477 112.9284319233  86.8265077067  # c4h2
      63       1   1  0.0000   3.1770174509 112.8703661094  86.3176355209  # c4h
      64       1   3  0.0000   2.7175514538 111.3814921253  86.0603091072  # c4h3
      65       1   2  0.0000   6.8619957856 101.6647478348  81.2534098544  # c4h2
      66       1   2  0.0000   6.4059906368 101.8431433309  79.8081175969  # c4h2
      67       1   2  0.0000   3.0704878700 113.6234379286  85.0309723592  # c4h2
      68       1   2  0.0000   1.7509376207 113.5986338755  84.2601853818  # c4h2
      69       1   2  0.0000   6.5730767763 103.8209370842  82.6153621530  # c4h2
      70       1   1  0.0000   7.6040064309 102.8726163903  81.9256148174  # c4h
      71       1   3  0.0000   8.7054169705 102.2836982510  82.8910557765  # c4h3
      72       1   2  0.0000   8.1064536224 105.7546654500  81.9081374268  # c4h2
      73       1   1  0.0000   7.2719171370 105.1219001384  83.0953082776  # c4h
      74       1   3  0.0000   6.1541673554 106.0223689134  83.6168839603  # c4h3
      75       1   2  0.0000   1.7275817778 114.6489032862  83.1151557337  # c4h2
      76       1   1  0.0000   1.2833121061 116.0848457901  83.5353436069  # c4h
      77       1   3  0.0000  -0.0199422740 116.0129608787  84.2139035211  # c4h3
      78       1   2  0.0000   9.7779087457 107.2383192141  80.7519429577  # c4h2
      79       1   1  0.0000   8.5689668567 107.1664501268  81.7579522177  # c4h
      80       1   3  0.0000   7.3733904458 108.0259695644  81.1799599419  # c4h3
      81       1   2  0.0000  11.9144185654 108.8601227281  80.1249935632  # c4h2
      82       1   1  0.0000  11.1558206621 107.8869819079  81.1771067615  # c4h
      83       1   3  0.0000  12.0542745990 106.7750078996  81.8412823441  # c4h3
      84       1   2  0.0000  12.6121833937 111.1886121005  79.4202937616  # c4h2
      85       1   1  0.0000  12.4118134646 110.2986864740  80.6344222069  # c4h
      86       1   3  0.0000  13.6952924559 110.1962273756  81.4329840531  # c4h3
      87       1   2  0.0000   1.3173437816 117.0155099866  82.3235363523  # c4h2
      88       1   1  0.0000   0.9406399379 118.4744545738  82.6088531307  # c4h
      89       1   3  0.0000  -0.5717630469 118.9178389815  82.6422343004  # c4h3
      90       1   2  0.0000  12.2785356587 113.4470793648  78.2759286762  # c4h2
      91       1   1  0.0000  13.0695334448 112.6958637709  79.3648031390  # c4h
      92       1   3  0.0000  14.6258503094 112.8845862370  79.2592055332  # c4h3
      93       1   2  0.0000   1.5178733081 119.3091339515  81.5126295912  # c4h2
      94       1   1  0.0000   1.7042626846 120.8354486850  81.7401585259  # c4h
      95       1   3  0.0000   2.7450491507 121.0987252933  82.8504988076  # c4h3
      96       1   2  0.0000   2.0468669692 121.6968216126  80.5430464686  # c4h2
      97       1   1  0.0000   3.2002433505 121.2086433021  79.7037001591  # c4h
      98       1   3  0.0000   2.7682670926 120.0936897553  78.6944078657  # c4h3
      99       1   2  0.0000   3.8694882093 122.3134085791  78.9291425776  # c4h2
     100       1   1  0.0000   4.0579285135 122.0956706137  77.4440541119  # c4h
     101       1   3  0.0000   5.4618285733 122.2368671680  77.0281193343  # c4h3
     102       1   2  0.0000  11.4981868648 115.7254533365  77.1643181399  # c4h2
     103       1   1  0.0000  12.2440054837 115.0171934937  78.3457051910  # c4h
     104       1   3  0.0000  11.5978746247 115.4078131152  79.6658204665  # c4h3
     105       1   2  0.0000   3.0748071495 122.9304998351  76.5596595400  # c4h2
     106       1   2  0.0000   3.2850696176 122.7969864624  74.9974251732  # c4h2
     107       1   2  0.0000   2.8923919494 124.0406906706  74.2231242230  # c4h2
     108       1   1  0.0000   1.4749832107 124.0085538083  73.6269374499  # c4h
     109       1   3  0.0000   0.5294304672 124.4813021804  74.6777984645  # c4h3
     110       1   2  0.0000  11.4239590808 116.7916560312  74.8137721004  # c4h2
     111       1   1  0.0000  12.3061780903 116.3001874451  75.9401404708  # c4h
     112       1   3  0.0000  13.2086759326 115.2061674228  75.3086010752  # c4h3
     113       1   2  0.0000   1.0309823251 122.5906487929  73.0800889579  # c4h2
     114       1   1  0.0000  -0.4523448409 122.8390579264  72.6283483618  # c4h
     115       1   3  0.0000  -0.7287272173 123.3207148697  71.2622119466  # c4h3
     116       1   2  0.0000  -1.2227484510 121.5767717716  72.8609487121  # c4h2
     117       1   2  0.0000  -0.8053116569 120.3583171929  72.0412718014  # c4h2
     118       1   2  0.0000  12.9125267198 118.4482152684  73.8725501982  # c4h2
     119       1   1  0.0000  11.9748715805 117.3113857854  73.5666660326  # c4h
     120       1   3  0.0000  10.8606152546 117.6468437145  72.5746502620  # c4h3
     121       1   2  0.0000  12.8325678783 120.3380076565  71.9765203540  # c4h2
     122       1   1  0.0000  13.5795107358 119.1724721353  72.6353045885  # c4h
     123       1   3  0.0000  14.3731552020 118.0869146605  71.7805152078  # c4h3
     124       1   2  0.0000  -1.5025479251 118.9886823334  72.3011205142  # c4h2
     125       1   2  0.0000  -2.9987427484 118.9055430002  71.9969064113  # c4h2
     126       1   2  0.0000  -4.0607007146 119.8669460020  72.6373990888  # c4h2
     127       1   1  0.0000  -4.0992103285 119.7867214416  74.1739927016  # c4h
     128       1   3  0.0000  -4.7440192189 118.4807612200  74.6596788986  # c4h3
     129       1   2  0.0000  -4.6442533292 121.0442740827  74.8684816388  # c4h2
     130       1   1  0.0000  -4.0822247686 121.3234266481  76.3372332864  # c4h
     131       1   3  0.0000  -5.0094204181 120.6401963515  77.4096483148  # c4h3
     132       1   2  0.0000  13.7385633227 120.6536361871  69.5447019786  # c4h2
     133       1   1  0.0000  13.5021741887 121.2505236101  70.9088961570  # c4h
     134       1   3  0.0000  14.7427472894 121.9927088158  71.4620218996  # c4h3
     135       1   2  0.0000  -4.0957632440 122.8483446288  76.6943698785  # c4h2
     136       1   1  0.0000  -3.5494024797 123.1936061134  78.0768179844  # c4h
     137       1   3  0.0000  -2.0635418379 122.9755696288  78.1664748860  # c4h3
     138       1   2  0.0000  13.5465842345 120.7479832269  67.0705229996  # c4h2
     139       1   1  0.0000  14.0902246498 121.5073670076  68.3336947156  # c4h
     140       1   3  0.0000  15.6659897174 121.6448382308  68.2132573990  # c4h3
     141       1   2  0.0000  -3.9801638863 124.7001294920  78.4089495970  # c4h2
     142       1   1  0.0000  -3.7505707470 125.2722976006  79.8594527906  # c4h
     143       1   3  0.0000  -4.2162185815 124.2479005675  80.9154055142  # c4h3
     144       1   2  0.0000  14.0182093209 122.7147970222  65.2198756255  # c4h2
     145       1   2  0.0000  13.0862776507 121.5689947352  65.8255091679  # c4h2
     146       1   2  0.0000  14.2464882508 124.7185533422  66.5826606648  # c4h2
     147       1   1  0.0000  13.3982125303 124.1675159468  65.4544604498  # c4h
     148       1   3  0.0000  13.4518216804 125.1690812914  64.2580782366  # c4h3
     149       1   2  0.0000  -4.2025894986 126.7889220753  80.0334857276  # c4h2
     150       1   1  0.0000  -3.5562352487 127.7242965137  81.1102734880  # c4h
     151       1   3  0.0000  -2.1418814333 127.3328519082  81.1998211578  # c4h3
     152       1   2  0.0000  -3.6258936138 129.1751027027  80.7743287286  # c4h2
     153       1   1  0.0000  -4.0788128165 130.0593760158  81.9999070539  # c4h
     154       1   3  0.0000  -5.5085164557 129.6248785305  82.3427328332  # c4h3
     155       1   2  0.0000  -3.1691056646 129.9997712812  83.2635514832  # c4h2
     156       1   2  0.0000  -3.5203555568 131.0742048245  84.2258407107  # c4h2
     157       1   2  0.0000  -3.5858924993 130.6175971453  85.6969157653  # c4h2
     158       1   1  0.0000  -3.6837072070 131.8190225040  86.6732161083  # c4h
     159       1   3  0.0000  -2.3831634216 132.6653749503  86.8619580697  # c4h3
     160       1   2  0.0000  14.1286803020 126.1980901541  68.7860009837  # c4h2
     161       1   1  0.0000  13.5441685289 125.8646180751  67.3461303779  # c4h
     162       1   3  0.0000  12.0254124880 125.6048726224  67.4461834890  # c4h3
     163       1   2  0.0000  -4.7403924723 131.6494354698  87.9394752136  # c4h2
     164       1   2  0.0000  -5.4051043422 133.0550972919  88.1243429830  # c4h2
     165       1   2  0.0000  16.2834915731 127.4351678835  67.9684853373  # c4h2
     166       1   1  0.0000  15.6597497205 126.4296219898  68.9346706041  # c4h
     167       1   3  0.0000  16.3489661555 125.0289468576  68.9984156061  # c4h3
     168       1   2  0.0000  -6.6971601063 133.3407723502  87.3327509057  # c4h2
     169       1   1  0.0000  -6.6700185068 134.4757241040  86.3298971370  # c4h
     170       1   3  0.0000  -6.1160002439 134.0054568940  85.0325456492  # c4h3
     171       1   2  0.0000  -8.0171788584 135.1915338105  86.0522524381  # c4h2
     172       1   2  0.0000  -8.1788215119 136.3978137476  85.1565987892  # c4h2
     173       1   2  0.0000  -9.6668218196 136.8759705953  85.1090413423  # c4h2
     174       1   1  0.0000  -9.8551305743 138.0244462270  84.1078158715  # c4h
     175       1   3  0.0000 -11.4174786680 138.0655574473  83.9567405682  # c4h3
     176       1   2  0.0000  -9.1032422920 139.3353116032  84.6104289435  # c4h2
     177       1   1  0.0000  -9.2562283739 140.6099820249  83.6903416637  # c4h
     178       1   3  0.0000  -8.9843390084 140.1987986269  82.2450254520  # c4h3
     179       1   2  0.0000 -10.5493814990 141.4415312020  83.8817998391  # c4h2
     180       1   1  0.0000 -10.6335165730 142.7373817655  83.0664810056  # c4h
     181       1   3  0.0000 -11.9967598833 143.2364705856  82.7610528919  # c4h3
     182       1   2  0.0000  -9.7740170560 143.8670075459  83.7272476043  # c4h2
     183       1   1  0.0000  -8.3871042323 143.9025855636  83.0457994357  # c4h
     184       1   3  0.0000  -8.5704127517 143.7808819040  81.5375695394  # c4h3
     185       1   2  0.0000  -7.7976837646 145.2905744056  83.3105586312  # c4h2
     186       1   1  0.0000  -6.2461180051 145.4232660013  83.5590458174  # c4h
     187       1   3  0.0000  -5.8072228270 146.7764669010  84.2243678972  # c4h3
     188       1   2  0.0000  -5.4998832694 145.2743637890  82.2307874440  # c4h2
     189       1   1  0.0000  -3.9843182824 145.1803489356  82.2251814327  # c4h
     190       1   3  0.0000  -3.4681526774 143.9547400404  82.9655873364  # c4h3
     191       1   2  0.0000  -3.4910835437 145.2561304306  80.7415036154  # c4h2
     192       1   1  0.0000  -2.9512390090 146.6947661218  80.4288703088  # c4h
     193       1   3  0.0000  -4.0194370561 147.8060459061  80.6037877681  # c4h3
     194       1   2  0.0000  17.9804047609 129.2269461484  67.3964962198  # c4h2
     195       1   1  0.0000  17.5740492417 128.1132585415  68.4176472866  # c4h
     196       1   3  0.0000  17.3316418050 128.6914482342  69.8197049217  # c4h3
     197       1   2  0.0000  20.2888099834 129.8772363676  68.4208460347  # c4h2
     198       1   1  0.0000  19.4869483994 129.5148577494  67.1694708701  # c4h
     199       1   3  0.0000  20.1748750881 128.7241003735  66.1104709650  # c4h3
     200       1   2  0.0000  -2.5098740682 146.7572344728  78.9898974666  # c4h2
     201       1   2  0.0000  -3.6274262493 146.9720386260  78.0379234027  # c4h2
     202       1   2  0.0000  21.7532716940 131.3903083004  69.7165595189  # c4h2
     203       1   1  0.0000  21.5419121266 130.7899197448  68.3045485178  # c4h
     204       1   3  0.0000  22.6497796586 129.7971584285  67.9759031701  # c4h3
     205       1   2  0.0000  -3.2425832660 147.4937121668  76.6793472410  # c4h2
     206       1   2  0.0000  -2.5361179168 146.3684757682  75.9871889314  # c4h2
     207       1   2  0.0000  22.9476280881 133.1836766346  71.2661972117  # c4h2
     208       1   1  0.0000  23.0560160811 132.3539863001  69.9714422174  # c4h
     209       1   3  0.0000  24.3814922000 131.5358780991  70.0351157752  # c4h3
     210       1   2  0.0000  24.3543236077 134.8245379358  72.8229752277  # c4h2
     211       1   2  0.0000  24.3515236182 133.9354476447  71.5640195696  # c4h2
     212       1   2  0.0000  -3.5112149269 145.3631994601  75.4073256927  # c4h2
     213       1   1  0.0000  -3.1962145516 144.9182567460  73.9909500145  # c4h
     214       1   3  0.0000  -3.0347163967 146.1715070180  73.1224219903  # c4h3
     215       1   2  0.0000  26.8548345161 135.5737376677  72.9346510146  # c4h2
     216       1   2  0.0000  25.3654155230 136.0261074305  72.9162334464  # c4h2
     217       1   2  0.0000  -4.3744392850 144.0285042330  73.5669088165  # c4h2
     218       1   2  0.0000  -4.2600224407 143.4129561748  72.1448740966  # c4h2
     219       1   2  0.0000  -5.0222400277 142.1363878076  72.0734288346  # c4h2
     220       1   1  0.0000  -4.5397339762 140.9613194675  72.9144653859  # c4h
     221       1   3  0.0000  -3.1061424731 140.5211024156  72.6903128180  # c4h3
     222       1   2  0.0000  29.4059294118 136.1937417768  72.9673756864  # c4h2
     223       1   1  0.0000  27.9046671959 136.6957368756  72.7398887601  # c4h
     224       1   3  0.0000  27.6973923471 137.9983175378  73.4820820859  # c4h3
     225       1   2  0.0000  31.8618950467 136.7592089005  73.4115771652  # c4h2
     226       1   2  0.0000  30.4425754400 137.3177720490  73.4087158271  # c4h2
     227       1   2  0.0000  34.3926381781 137.4129880512  73.4403066728  # c4h2
     228       1   2  0.0000  32.9004917762 137.6933576265  73.8598886517  # c4h2
     229       1   2  0.0000  -5.6618277394 139.8642418542  72.8086494964  # c4h2
     230       1   1  0.0000  -5.5084814213 138.4853352215  73.4375530052  # c4h
     231       1   3  0.0000  -4.8771780024 138.6555310451  74.8601860809  # c4h3
     232       1   2  0.0000  35.5569326932 136.9739257290  75.7165376161  # c4h2
     233       1   1  0.0000  35.3152100276 136.4982552630  74.2859591490  # c4h
     234       1   3  0.0000  36.6247218259 136.3398028759  73.4818754995  # c4h3
     235       1   2  0.0000  34.4707007775 137.3332922360  78.0435757684  # c4h2
     236       1   1  0.0000  34.5224075974 136.4626771990  76.8386106168  # c4h
     237       1   3  0.0000  34.6903337086 134.9527876040  77.1772123305  # c4h3
     238       1   2  0.0000  -6.8706421861 137.7365430482  73.5973154820  # c4h2
     239       1   2  0.0000  -7.5118213996 137.2950165451  72.2828870876  # c4h2
     240       1   2  0.0000  32.1909686240 136.3134035671  78.9851702890  # c4h2
     241       1   1  0.0000  33.0429067025 137.5542828771  78.7550313489  # c4h
     242       1   3  0.0000  32.8849258757 138.6710196002  79.7460707906  # c4h3
     243       1   2  0.0000  -8.7153077123 136.4102689312  72.4727464696  # c4h2
     244       1   2  0.0000  -9.4702441076 136.0850008870  71.1760506283  # c4h2
     245       1   2  0.0000 -10.6626181255 135.0247286230  71.2380435017  # c4h2
     246       1   1  0.0000 -10.3112848334 133.6424971266  71.9082718539  # c4h
     247       1   3  0.0000 -11.5402331071 133.0353752160  72.4207039719  # c4h3
     248       1   2  0.0000  30.3954513951 136.5167467397  77.0488862842  # c4h2
     249       1   2  0.0000  30.7704318904 136.4295666333  78.5314057266  # c4h2
     250       1   2  0.0000  29.0709204849 134.5582810716  76.2302658078  # c4h2
     251       1   2  0.0000  29.0124411235 135.9998735258  76.7754680222  # c4h2
     252       1   2  0.0000  27.2754713967 133.8241305917  77.8337318241  # c4h2
     253       1   1  0.0000  28.6108081943 133.4710629088  77.2747242523  # c4h
     254       1   3  0.0000  29.7682166925 132.9734503699  78.1956876665  # c4h3
     255       1   2  0.0000  -9.6886119810 132.5984167138  70.9479782737  # c4h2
     256       1   2  0.0000  -8.1181516026 132.7830744951  70.8301354028  # c4h2
     257       1   2  0.0000  -7.5169653232 131.4784242080  70.1976745275  # c4h2
     258       1   1  0.0000  -8.0254436996 131.1124179193  68.7197431422  # c4h
     259       1   3  0.0000  -7.5097672932 132.1566954899  67.7804727852  # c4h3
     260       1   2  0.0000  25.3436805560 133.2640882412  79.2635732840  # c4h2
     261       1   2  0.0000  26.5404682781 132.7639786572  78.6183507225  # c4h2
     262       1   2  0.0000  23.0521265717 131.9640565042  78.9693408937  # c4h2
     263       1   1  0.0000  23.9488975573 133.1619512962  78.6125255097  # c4h
     264       1   3  0.0000  24.1096669139 133.3663074659  77.0965349625  # c4h3
     265       1   2  0.0000  20.8382168187 130.5509447049  78.6866262176  # c4h2
     266       1   2  0.0000  21.5331192561 131.9583431263  78.5783465241  # c4h2
     267       1   3  0.0000  19.3966612915 130.4522374108  78.3400526873  # c4h3
     268       1   3  0.0000  -7.4668200927 129.7239249036  68.3560948612  # c4h3
     269       2   2  0.0000  47.6154274161 129.6442680700 109.9993934821  # c4h2
     270       2   1  0.0000  46.3740283597 128.8324432132 109.4732618386  # c4h
     271       2   3  0.0000  45.2431676869 129.7999831407 109.4996167141  # c4h3
     272       2   2  0.0000  46.1324115149 127.5515811214 110.3639148265  # c4h2
     273       2   1  0.0000  46.4148423504 126.2063816139 109.6485380232  # c4h
     274       2   3  0.0000  47.8888567606 125.6631351740 109.5627353186  # c4h3
     275       2   2  0.0000  45.4735571440 125.7853289858 108.4124461110  # c4h2
     276       2   1  0.0000  43.9512415813 125.8377355842 108.6081618570  # c4h
     277       2   3  0.0000  43.3799914171 124.7993265318 109.6015513898  # c4h3
     278       2   2  0.0000  47.7783007441 132.1098160620 108.8603891766  # c4h2
     279       2   1  0.0000  48.2889103570 130.6397692051 109.0203408617  # c4h
     280       2   3  0.0000  49.7695168361 130.3327463632 108.7499432146  # c4h3
     281       2   2  0.0000  48.9900639229 133.9983532266 109.9674224819  # c4h2
     282       2   1  0.0000  47.8017936135 133.0544132685 110.0140237903  # c4h
     283       2   3  0.0000  46.4305813470 133.7958503058 110.1835038626  # c4h3
     284       2   2  0.0000  43.1011275171 125.7347606452 107.3181915306  # c4h2
     285       2   1  0.0000  43.4304533858 126.6851718912 106.1251602826  # c4h
     286       2   3  0.0000  44.5140039562 126.0830738963 105.1701427535  # c4h3
     287       2   2  0.0000  50.7293078072 135.3171731490 111.3304422543  # c4h2
     288       2   1  0.0000  49.2389310562 135.1022423754 111.0445283309  # c4h
     289       2   3  0.0000  48.6265586182 136.4990334491 110.6185117853  # c4h3
     290       2   2  0.0000  42.2486221545 127.3210201995 105.2559296539  # c4h2
     291       2   1  0.0000  42.6837227097 128.3758476255 104.2549516667  # c4h
     292       2   3  0.0000  43.4562564274 129.6483170311 104.8060907757  # c4h3
     293       2   2  0.0000  41.6266171660 128.9005450624 103.2102950408  # c4h2
     294       2   2  0.0000  40.7232161500 127.9374838855 102.4953368329  # c4h2
     295       2   2  0.0000  39.6731006389 128.7635344035 101.5926678141  # c4h2
     296       2   1  0.0000  38.5674090285 127.8554462112 101.0444175864  # c4h
     297       2   3  0.0000  38.1934948884 128.5393842750  99.6701393943  # c4h3
     298       2   2  0.0000  52.5344954375 136.6293226230 112.6197639490  # c4h2
     299       2   2  0.0000  51.0365342615 136.5846480206 112.1554848235  # c4h2
     300       2   2  0.0000  52.4625926536 137.8813613922 114.9197760737  # c4h2
     301       2   1  0.0000  53.0682137458 137.7685186773 113.4953881704  # c4h
     302       2   3  0.0000  53.1040881130 139.1163346518 112.8391765714  # c4h3
     303       2   2  0.0000  50.4050180560 139.6326055469 115.0426311525  # c4h2
     304       2   1  0.0000  50.8883094574 138.1550695580 115.1263656038  # c4h
     305       2   3  0.0000  49.8430339041 137.0163406057 115.1857480049  # c4h3
     306       2   2  0.0000  48.7835463696 140.8828373692 116.5983629127  # c4h2
     307       2   1  0.0000  48.9443514314 139.7144273216 115.5411002254  # c4h
     308       2   3  0.0000  47.8972841009 139.7872319321 114.3999437327  # c4h3
     309       2   2  0.0000  37.4196772276 127.8284353949 102.0926495696  # c4h2
     310       2   1  0.0000  37.3130657775 126.6281741781 103.0965299436  # c4h
     311       2   3  0.0000  37.2400238863 125.2889550731 102.3525970928  # c4h3
     312       2   2  0.0000  46.2039755837 141.2461062618 117.2514209799  # c4h2
     313       2   1  0.0000  47.6545200180 140.8465446185 117.6857056718  # c4h
     314       2   3  0.0000  48.0233619060 141.7274178623 118.9327904509  # c4h3
     315       2   2  0.0000  44.5239989336 139.6021974286 118.3820947608  # c4h2
     316       2   1  0.0000  45.0106916225 141.0744920224 118.2486333728  # c4h
     317       2   3  0.0000  43.8652533871 141.9533234215 117.7797273697  # c4h3
     318       2   2  0.0000  42.6239150201 137.8806716902 118.5548956892  # c4h2
     319       2   1  0.0000  43.0486526662 139.3377215555 118.8339835118  # c4h
     320       2   3  0.0000  42.7615185980 139.8057436996 120.2575768657  # c4h3
     321       2   2  0.0000  36.5033923888 126.7702871936 104.3334825003  # c4h2
     322       2   1  0.0000  37.0265338956 127.5851908413 105.5566521458  # c4h
     323       2   3  0.0000  37.2209920331 129.0792783591 105.2632801074  # c4h3
     324       2   2  0.0000  36.1213462716 127.2703981558 106.8142076356  # c4h2
     325       2   2  0.0000  34.7411143816 127.9770721208 106.7706561380  # c4h2
     326       2   2  0.0000  43.8440803385 135.7711255875 118.2018057474  # c4h2
     327       2   1  0.0000  43.2749412741 136.7054940053 119.2897565145  # c4h
     328       2   3  0.0000  42.3274766765 136.0012081109 120.3542592344  # c4h3
     329       2   2  0.0000  46.1308741646 135.6336862970 119.1581715332  # c4h2
     330       2   1  0.0000  45.0579997753 134.8505445813 118.5974031710  # c4h
     331       2   3  0.0000  44.7747643456 133.8722427921 119.7516314261  # c4h3
     332       2   2  0.0000  33.8263141049 127.8741204816 107.9872241915  # c4h2
     333       2   1  0.0000  32.6415785638 128.8177219679 108.0336070315  # c4h
     334       2   3  0.0000  31.3894575399 128.1046009471 108.4918624620  # c4h3
     335       2   2  0.0000  48.3554800887 136.8969541281 118.6369903373  # c4h2
     336       2   2  0.0000  46.9798099529 136.3446904561 118.0992263849  # c4h2
     337       2   2  0.0000  32.9516633762 129.8921396920 109.0850894519  # c4h2
     338       2   1  0.0000  34.0592495523 131.0702731214 108.9377655873  # c4h
     339       2   3  0.0000  35.4528610751 130.7654833254 109.5428613958  # c4h3
     340       2   2  0.0000  33.6004362604 132.4029476111 109.5446384730  # c4h2
     341       2   1  0.0000  33.0822816882 132.2307261225 111.0163551944  # c4h
     342       2   3  0.0000  31.6619060784 132.6590127496 110.9176559210  # c4h3
     343       2   2  0.0000  49.4635270009 138.0885153828 120.6348221324  # c4h2
     344       2   2  0.0000  48.1649315716 137.9103672073 119.8279591355  # c4h2
     345       2   2  0.0000  51.4895063311 138.0046346700 118.9332471131  # c4h2
     346       2   1  0.0000  50.7394476323 138.7916468079 120.0013690570  # c4h
     347       2   3  0.0000  51.6131922871 139.2508187789 121.1392369931  # c4h3
     348       2   2  0.0000  51.7877584336 135.6233303688 118.2815651282  # c4h2
     349       2   1  0.0000  51.9995430045 136.5910825389 119.4381198356  # c4h
     350       2   3  0.0000  53.4350432754 136.6198238973 119.7733668859  # c4h3
     351       2   2  0.0000  33.6104550901 133.2033551912 112.0696752053  # c4h2
     352       2   1  0.0000  35.0731930872 133.2220690559 112.6168870439  # c4h
     353       2   3  0.0000  35.4907185769 131.7927693002 112.9908848017  # c4h3
     354       2   2  0.0000  35.2845125175 134.1977361200 113.7426641327  # c4h2
     355       2   2  0.0000  34.2855083853 135.3869557683 113.6643705289  # c4h2
     356       2   2  0.0000  52.5049031824 133.4682683505 116.9827943861  # c4h2
     357       2   2  0.0000  52.6338143351 134.3303388481 118.3118293209  # c4h2
     358       2   2  0.0000  34.6694038537 136.6531393045 114.4388206455  # c4h2
     359       2   2  0.0000  33.5886800276 137.7379398204 114.2744372628  # c4h2
     360       2   2  0.0000  34.0141398864 139.2192386166 114.7032539821  # c4h2
     361       2   2  0.0000  32.9625577991 140.3020169901 114.3040557071  # c4h2